! Touchstone file exported from HFSS 2021.1.0
!        File:           D:/ANSYS/HFSS_work/cp_ant/260204_Cir_to_Rect_STEP_v3_fin.aedt
!        Generated:      4:30:06 %xC624%xD6C4  4 22, 2026
!        Design:         cir_to_rect_OMT_v13_GA7_opt_STEP_exp_QN2
!        Project:        260204_Cir_to_Rect_STEP_v3_fin
!        Setup:          Setup1
!        Solution:       Sweep
!
! Variables:
!        diff_ws = 0.0610877997211628mm
!        fil_r = 100um
!        h1 = 0.291824400557674mm
!        h2 = 0.134mm
!        h3 = 0.176mm
!        l1 = 0.527mm
!        l2 = 0.275mm
!        l3 = 0.459mm
!        l4 = 0.313mm
!        l5 = 0.285999999999997mm
!        mov_x = 1mm
!        r_r = 6mm
!        sep_h1 = 0.775824400557674mm
!        sep_h2 = 0.484mm
!        sep_h3 = 0.35mm
!        sep_h4 = 0.174mm
!        sep_l = 1.373mm
!        sep_l1 = 1.9mm
!        sep_l2 = 2.175mm
!        sep_l3 = 2.634mm
!        sep_l4 = 2.947mm
!        sep_ll = 0.2004mm
!        sep_ll2 = 0.2505mm
!        sep_ll3 = 1mm
!        sep_w = 0.137mm
!        tr_l = 1.002mm
!        wc_d = 0.9906mm
!        wc_l = 3.8259mm
!        wg_x = 20mm
!        wr_l = 3.7156mm
!        ws_x = 0.8636mm
!        ws_x1 = 0.898mm
!        ws_x2 = 0.775824400557674mm
!        ws_x3 = 0.898mm
!        ws_y2 = 0.898mm
!        ws_z = 0
!        wsc_l = 2mm
!
!Data is not renormalized
# GHz S MA
! Terminal data exported
! Port[1] = cir:1
! Port[2] = cir:2
! Port[3] = cir:3
! Port[4] = rec1:1
! Port[5] = rec1:2
! Port[6] = rec1:3
! Port[7] = rec2:1
! Port[8] = rec2:2
! Port[9] = rec2:3
240                            0.161276023764207 44.2258557730106 0.0228894914546787 95.1561889229988 0.277640476456946 50.7912525189147 0.640880090846476 -86.3243140804216 
                               5.95752409470064E-05 111.073147799788 3.94509635454752E-05 29.6348247099574 0.639393010681776 -72.0654186242213 6.71461412845473E-05 66.442608724979  
                               0.000155427453242599 -91.9133392932613 
                               0.0228894914546792 95.1561889229984 0.156450928853875 -29.2399912095328 0.0339307389580934 46.7473697350869 0.660957779222352 11.365023636788  
                               6.14416323979745E-05 -151.237514483002 4.06868954514702E-05 127.324162427167 0.678952595673101 -155.819350873631 7.1300508690211E-05 -17.3113235244309 
                               0.000165043832283057 -175.667271542671 
                               0.277640476456948 50.7912525189142 0.0339307389580921 46.7473697350902 0.858548259399342 80.8568145041459 0.211545187644183 129.419687201261 
                               1.96649197019616E-05 -33.1828509185306 1.302218871388E-05 -114.62117400836 0.215123382669557 129.236718974404 2.25912776727691E-05 -92.2552536763961 
                               5.22934704362968E-05 109.388798305364 
                               0.640880090846476 -86.3243140804216 0.660957779222352 11.365023636788  0.211545187644184 129.41968720126  0.0992218516370405 -94.7473174972028 
                               0.000101590460139564 75.2462420013379 5.89819836507793E-05 149.897889411462 0.0657973736188234 35.6128999244654 6.90974044344145E-06 174.120927273666 
                               1.59944166432488E-05 15.7649792554246 
                               5.957524094702E-05 111.073147799783 6.14416323979885E-05 -151.237514483007 1.96649197019661E-05 -33.182850918536 0.000101590460139554 75.2462420013566 
                               0.00147595624807757 -179.916971870273 5.94997725415794E-05 -179.902240832217 6.11642402847149E-06 -126.98963819533 6.42318988651485E-10 11.5183891538703 
                               1.48681670555561E-09 -146.83755886437 
                               3.94509635455338E-05 29.6348247098794 4.06868954515307E-05 127.324162427089 1.30221887138994E-05 -114.621174008439 5.89819836507838E-05 149.897889411335 
                               5.94997725415215E-05 -179.902240832164 0.00145159863489737 -179.929137637941 4.05032052813434E-06 151.572038714767 4.25346210994424E-10 -69.9199339360327 
                               9.84575986892449E-10 131.724118045726 
                               0.639393010681776 -72.0654186242213 0.678952595673101 -155.819350873631 0.215123382669559 129.236718974404 0.0657973736188233 35.6128999244654 
                               6.1164240284701E-06 -126.989638195325 4.05032052812832E-06 151.572038714845 0.0962490644364653 -94.4133753733362 0.000110385863186202 132.292395453415 
                               0.00026262664758744 -74.9760622861839 
                               6.71461412845543E-05 66.442608724968  7.13005086902186E-05 -17.311323524442 2.25912776727717E-05 -92.2552536764071 6.90974044344218E-06 174.120927273655 
                               6.42318988651407E-10 11.5183891538641 4.25346210993837E-10 -69.9199339359658 0.000110385863186198 132.29239545339  0.00151405021345168 -179.816905086876 
                               4.43198985874313E-05 -0.97528087344701 
                               0.000155427453242574 -91.9133392932716 0.000165043832283031 -175.667271542681 5.2293470436289E-05 109.388798305353 1.59944166432462E-05 15.7649792554144 
                               1.48681670555503E-09 -146.837558864376 9.84575986890831E-10 131.724118045794 0.000262626647587448 -74.9760622861984 4.43198985874038E-05 -0.97528087346554 
                               0.00149134804218887 179.939804954436 
! Gamma         1.2282426932971  3337.74111225173 1.22804716580445 3337.7031585835  4.10420585805803 1034.03848385942 2.05913529090836 3475.90933156715 5252.89493971015 4.18746962351597 5254.20720791963 2.76477735526118 2.05920457924532 3475.87739048426 5252.62999306553 4.18693910824735 5254.50734487608 2.76521684150742 
! Port Impedance         537.13627529859  -0.358655252767466 537.168413858778 -0.358682625368563 6.3163630071578  -0.0210380452154884 336.126983593353 0.234440747983955 20.8208326925706 866.996467684272 1.48192965344362 225.963653576551 335.834947349785 0.233408138711446 27.6543126401817 437.011928182667 2.43881945813984 187.848511616562 
240.666666666667               0.159995072939374 42.6628417018225 0.0245769564330807 93.0751677357499 0.247114961947272 31.0160205987832 0.652377535162625 -110.423216509831 
                               6.06943666811831E-05 87.6258443563816 4.01677496488566E-05 5.96158380865664 0.640662435734376 -96.4022345204694 6.62117307866262E-05 39.0921238064553 
                               0.000158470380201181 -115.563947659835 
                               0.0245769564330816 93.0751677357509 0.155763273925863 -38.7196063375335 0.0302904845123897 29.6656314628892 0.664456867274445 -12.3901433717768 
                               6.18181751708117E-05 -174.341082505564 4.0911490139663E-05 103.994656946711 0.67587400309364 -179.363015797467 6.9850806044557E-05 -43.8686574705418 
                               0.000167180100259148 161.475271063168 
                               0.247114961947277 31.0160205987828 0.0302904845123918 29.6656314628865 0.881148969813293 50.2525970076505 0.188103464195691 93.4048992607557 
                               1.75003276700018E-05 -68.5460398730309 1.15817796454499E-05 -150.210300420756 0.191749857509319 93.1915668599236 1.98171287024621E-05 -131.314074813152 
                               4.74300835012952E-05 74.0298537205588 
                               0.652377535162625 -110.423216509831 0.664456867274445 -12.3901433717768 0.188103464195695 93.4048992607558 0.108427258937527 -130.385794245066 
                               0.000104396941570728 71.516705209649  5.7618096385485E-05 152.570057527716 0.0644735734898167 -10.7363486883327 6.66327016015253E-06 124.758009638592 
                               1.59477926814115E-05 -29.8980618276977 
                               6.06943666811907E-05 87.6258443563705 6.18181751708195E-05 -174.341082505575 1.75003276700043E-05 -68.5460398730421 0.000104396941570762 71.5167052096541 
                               0.00147075815883724 -179.944953758665 5.94290520658163E-05 -179.770913852481 5.99834068422088E-06 -172.687287822132 6.19921656706537E-10 -37.1929294952076 
                               1.48371322522614E-09 168.150999038503 
                               4.01677496488211E-05 5.96158380860993 4.0911490139627E-05 103.994656946665 1.15817796454399E-05 -150.210300420803 5.76180963854107E-05 152.570057527776 
                               5.94290520657699E-05 -179.770913852427 0.00144830196267837 -179.90053399592 3.96972338763665E-06 105.648451630109 4.10266376767168E-10 -118.857190042967 
                               9.81926736208896E-10 86.4867384907442 
                               0.640662435734376 -96.4022345204694 0.67587400309364 -179.363015797467 0.191749857509322 93.1915668599231 0.0644735734898167 -10.7363486883327 
                               5.99834068422013E-06 -172.687287822121 3.96972338764015E-06 105.648451630156 0.105542990520404 -129.684486661815 9.8333162619355E-05 131.398599110727 
                               0.000254431599470765 -77.074181029134 
                               6.62117307866088E-05 39.0921238064368 6.98508060445388E-05 -43.8686574705603 1.98171287024572E-05 -131.314074813171 6.66327016015078E-06 124.758009638574 
                               6.19921656706298E-10 -37.192929495215 4.10266376767423E-10 -118.857190042938 9.8333162619322E-05 131.398599110721 0.00150844966908147 -179.878824620792 
                               4.46866396063216E-05 -0.344219769103973 
                               0.000158470380201165 -115.563947659842 0.000167180100259131 161.475271063161 4.74300835012912E-05 74.0298537205509 1.59477926814099E-05 -29.898061827705 
                               1.4837132252258E-09 168.150999038506 9.81926736209664E-10 86.4867384907836 0.000254431599470712 -77.0741810291421 4.46866396063217E-05 -0.344219769123546 
                               0.00148971005072148 -179.997386084832 
! Gamma         1.22180081688287 3358.76188556665 1.22160384993441 3358.724166906   3.87414814054575 1100.01203875104 2.05187907705636 3496.10288535408 5239.48307320368 4.19487198368455 5240.79422556959 2.77300630080678 2.05194777954542 3496.07112874976 5239.21744487241 4.19434562352655 5241.0951291709  2.77344636119174 
! Port Impedance         535.277173244378 0.47293025663025 535.309202001194 0.473062749159511 6.68190742606433 -0.019604753800912 335.113280604543 0.232387316925367 39.9098911626331 850.430638917544 2.803402734405   225.775255766884 334.822118028706 0.23136124430774 8.58720769083912 461.576216248747 0.806533911017473 190.772583702138 
241.333333333333               0.163884488421385 39.8280038323818 0.026330089432544 85.3337936076987 0.217315436642485 12.1412662247511 0.657962506007535 -134.439571492325 
                               6.15374752846246E-05 64.0740585128754 4.08302566733938E-05 -18.2246599639864 0.644845239565754 -120.526660229285 6.70920544782827E-05 15.2620173459303 
                               0.000160624597687402 -139.241606174947 
                               0.0263300894325442 85.3337936076988 0.154223415233263 -49.2411987432131 0.0267485164292371 10.4171120456065 0.663961180462652 -35.9795881940926 
                               6.2098515279535E-05 162.534041811108 4.12025080030156E-05 80.235323334246  0.676964177587656 157.136130536813 7.04338261272466E-05 -67.0751918879715 
                               0.000168625108788933 138.421184591151 
                               0.217315436642484 12.1412662247511 0.02674851642924 10.4171120456045 0.900103394056534 20.7692931929139 0.165945488658886 58.0172395220274 
                               1.55204381916921E-05 -103.469130472774 1.02978465092908E-05 174.232151050366 0.16956368224362 57.7892948800648 1.76420249520462E-05 -166.42202754472 
                               4.22366431069835E-05 39.0743489344037 
                               0.657962506007536 -134.439571492325 0.663961180462653 -35.9795881940926 0.165945488658886 58.0172395220281 0.117438155968915 -165.273008463407 
                               0.000103693867857671 67.715950128773  5.8012795935326E-05 156.932867522489 0.0633821807422905 -56.2139487143301 6.59451363272488E-06 79.5747288608853 
                               1.57878769317373E-05 -74.9288946599914 
                               6.15374752846077E-05 64.0740585128693 6.2098515279518E-05 162.534041811102 1.55204381916879E-05 -103.469130472779 0.000103693867857693 67.7159501287628 
                               0.00146626410559713 -179.945034813303 5.92087721755387E-05 -179.774174444686 5.92796602435661E-06 142.299681290861 6.16767241267638E-10 -81.9116411339237 
                               1.47659794838226E-09 123.5847353452   
                               4.08302566734219E-05 -18.2246599640248 4.12025080030439E-05 80.2353233342076 1.02978465092979E-05 174.232151050329 5.80127959353163E-05 156.932867522446 
                               5.92087721754866E-05 -179.774174444633 0.00144429110408605 -179.900283871767 3.93321911902266E-06 60.0009628139697 4.09226486011119E-10 -164.210359610815 
                               9.79726141786957E-10 41.2860168683096 
                               0.644845239565753 -120.526660229285 0.676964177587655 157.136130536813 0.16956368224362 57.7892948800641 0.0633821807422906 -56.2139487143299 
                               5.92796602435824E-06 142.299681290867 3.93321911901995E-06 60.0009628140077 0.114801374736687 -164.158454207029 9.43294943083845E-05 133.988353942657 
                               0.00024044388922852 -78.1417594499361 
                               6.70920544782836E-05 15.2620173459138 7.04338261272475E-05 -67.0751918879882 1.76420249520463E-05 -166.422027544737 6.59451363272495E-06 79.5747288608686 
                               6.16767241267816E-10 -81.9116411339342 4.09226486010844E-10 -164.210359610793 9.43294943083698E-05 133.988353942638 0.00150452831900701 -179.878734112089 
                               4.47559531012255E-05 -0.3377365929062 
                               0.0001606245976874 -139.241606174945 0.000168625108788931 138.421184591153 4.22366431069828E-05 39.0743489344046 1.57878769317371E-05 -74.9288946599896 
                               1.47659794838264E-09 123.584735345207 9.7972614178627E-10 41.2860168683496 0.000240443889228514 -78.1417594499317 4.47559531011979E-05 -0.337736592922437 
                               0.00148640631674803 -179.997704164022 
! Gamma         1.21547231102329 3379.70968773968 1.21527392043137 3379.67220035268 3.6814197698517  1162.41484134953 2.04475309849109 3516.23600207041 5225.99940667267 4.20239423030662 5227.30946365095 2.78133165914583 2.04482122678839 3516.20442728335 5225.7330895038  4.20187205367698 5227.61114196691 2.78177228914388 
! Port Impedance         533.427904804653 0.470068679137485 533.459825398848 0.470200440220285 7.02566660590425 -0.0183770652261221 334.116960810618 0.230391032353533 40.2503073044034 854.841720925039 2.82759715837064 226.974694855741 333.826656955431 0.229371383687725 8.65167080840721 464.025478288577 0.81266124711133 191.79188464182  
242                            0.170606960364791 35.0976019695239 0.0277379876485991 75.6805502184616 0.188369063240914 -5.76309368294814 0.66228724970235 -158.326095190539 
                               6.2263270250808E-05 40.6548961434115 4.14214719112611E-05 -42.2836237578455 0.647908432249657 -144.492257928422 6.78611321944901E-05 -8.4099831315973 
                               0.00016251970694796 -162.762634306996 
                               0.0277379876485991 75.6805502184612 0.150573449913662 -60.6337735911691 0.0232709424529707 -7.86717632805908 0.663760520880291 -59.4660877584723 
                               6.24017761355979E-05 139.514903575478 4.15136148005318E-05 56.576383674221  0.678186869671258 133.709164286786 7.10324584841873E-05 -90.2085609163896 
                               0.000170114673353189 115.438787908212 
                               0.188369063240911 -5.7630936829483 0.0232709424529747 -7.86717632805874 0.916060318038887 -7.64467568045882 0.144869729853211 23.1772749523975 
                               1.3619563331569E-05 -137.841733713647 9.06059636298865E-06 139.219746385091 0.148387229299841 22.9526379629587 1.5541895864091E-05 159.034912759783 
                               3.72210760352271E-05 4.68226158438384 
                               0.66228724970235 -158.326095190539 0.663760520880291 -59.4660877584723 0.144869729853209 23.1772749523982 0.125066510378278 160.48790507086  
                               9.96925333577197E-05 64.594540888826  6.13373750481412E-05 160.438147431775 0.0624152035950095 -101.007152893992 6.53729164690803E-06 35.075121902833  
                               1.56560712786806E-05 -119.277529272574 
                               6.22632702508123E-05 40.6548961433868 6.24017761356021E-05 139.514903575453 1.36195633315698E-05 -137.841733713671 9.969253335777E-05 64.5945408888324 
                               0.00146176080369745 -179.94512309024 5.89832430105784E-05 -179.777486094587 5.86780840328979E-06 97.9738384399355 6.14587034104463E-10 -125.94388676324 
                               1.47186616914109E-09 79.7034620613569 
                               4.14214719112515E-05 -42.2836237577335 4.15136148005223E-05 56.5763836743329 9.06059636298645E-06 139.219746385204 6.13373750482353E-05 160.438147431854 
                               5.89832430105198E-05 -179.777486094514 0.00144027974940626 -179.900031369892 3.90363789082107E-06 15.0353185388149 4.08862230776393E-10 151.11759333564  
                               9.79178622269863E-10 -3.23505783976649 
                               0.647908432249657 -144.492257928422 0.678186869671257 133.709164286786 0.14838722929984 22.9526379629576 0.0624152035950095 -101.007152893992 
                               5.8678084032894E-06 97.9738384399603 3.90363789082198E-06 15.035318538703  0.122727429914814 162.04066070668  9.43149257485928E-05 138.011266756014 
                               0.000226822518697982 -76.7903271254399 
                               6.78611321944765E-05 -8.40998313160325 7.10324584841731E-05 -90.2085609163955 1.55418958640878E-05 159.034912759776 6.53729164690672E-06 35.0751219028271 
                               6.14587034104298E-10 -125.943886763221 4.08862230776406E-10 151.117593335522 9.43149257485605E-05 138.011266756009 0.00150060802330222 -179.87862953324 
                               4.48245545283412E-05 -0.330434239886888 
                               0.000162519706947901 -162.762634306983 0.000170114673353129 115.438787908225 3.72210760352137E-05 4.68226158439611 1.56560712786751E-05 -119.27752927256 
                               1.47186616914046E-09 79.7034620613949 9.79178622269741E-10 -3.23505783986523 0.000226822518697881 -76.7903271254425 4.48245545283412E-05 -0.330434239887571 
                               0.00148311019493761 -179.998014639476 
! Gamma         1.20925416251983 3400.5858672573  1.20905436367283 3400.54860750869 3.51703198776093 1221.79409621158 2.03775413267729 3536.30971392671 5212.44338307016 4.21003790209841 5213.75236529835 2.78975473868365 2.03782169808752 3536.27831835955 5212.17636980017 4.2095199381138  5214.05482652566 2.79019593351009 
! Port Impedance         531.612685475133 0.467297639108722 531.644499878763 0.46742868252195 7.35072681706781 -0.0173079301061833 333.137578975759 0.228449977191802 40.5937143796168 859.277224247461 2.85203476548688 228.182798184315 332.848119275642 0.227436642982163 8.71701215132274 466.501035006389 0.818875948516863 192.819739099634 
242.666666666667               0.177402844809776 28.5564794910305 0.028526446542699 64.8369700492966 0.160811748642417 -22.540247020841 0.66567976820272 177.915920172218 
                               6.29008433803054E-05 17.3669368020048 4.19602992043715E-05 -66.217117422915 0.650201836129465 -168.306669855051 6.85553215863499E-05 -31.9307853384079 
                               0.000164237555548583 173.865455109826 
                               0.0285264465426984 64.8369700492951 0.144289665230518 -72.5616553977876 0.0199372851744602 -25.1128666896559 0.663909711640012 -82.8672142633818 
                               6.27335887093007E-05 116.583802366405 4.18487258825919E-05 32.9997481414852 0.679577439983306 110.346058472848 7.16525967047676E-05 -113.278057010509 
                               0.000171657678196095 92.5181834377245 
                               0.160811748642421 -22.5402470208403 0.0199372851744621 -25.1128666896542 0.92934586832708 -34.9830910290917 0.124900044921856 -11.1751280937387 
                               1.18019482326071E-05 -171.724111463951 7.87291954164438E-06 104.691834311128 0.128263972139663 -11.3754635443508 1.35237665742708E-05 125.000420972293 
                               3.23988030771653E-05 -29.2033385794742 
                               0.66567976820272 177.915920172218 0.663909711640011 -82.8672142633819 0.124900044921858 -11.1751280937381 0.130303322334465 126.629729105841 
                               9.35256996538537E-05 63.2359504193065 6.64571925937621E-05 161.494884259589 0.0615090931756597 -145.235344870801 6.48533336701081E-06 -8.85946035415822 
                               1.55368726229941E-05 -163.063219905926 
                               6.29008433803009E-05 17.3669368020115 6.27335887092961E-05 116.583802366411 1.18019482326064E-05 -171.724111463943 9.35256996538214E-05 63.2359504193057 
                               0.00145724883862144 -179.945212447554 5.87523154958148E-05 -179.780711071481 5.81206463094464E-06 54.2156717589911 6.12806574381501E-10 -169.408443724366 
                               1.46809688105324E-09 36.3877967238686 
                               4.1960299204316E-05 -66.2171174229509 4.18487258825364E-05 32.999748141449  7.87291954163407E-06 104.691834311093 6.64571925937085E-05 161.494884259606 
                               5.87523154957595E-05 -179.780711071424 0.00143626756568493 -179.899778787881 3.87714945942428E-06 -29.3683824659708 4.08794951443738E-10 107.007502050672 
                               9.79347510771344E-10 -47.1962575010961 
                               0.650201836129466 -168.306669855051 0.679577439983305 110.346058472848 0.128263972139665 -11.3754635443509 0.0615090931756597 -145.235344870801 
                               5.81206463094506E-06 54.2156717589844 3.87714945942941E-06 -29.3683824659348 0.128214362337306 128.621486189774 9.91394729535438E-05 141.394435755686 
                               0.000220455828520007 -73.1657616973243 
                               6.85553215863286E-05 -31.9307853384207 7.16525967047451E-05 -113.278057010522 1.35237665742669E-05 125.00042097228  6.48533336700877E-06 -8.85946035417094 
                               6.12806574381353E-10 -169.408443724385 4.08794951444151E-10 107.007502050696 9.91394729535108E-05 141.394435755683 0.00149669044585118 -179.878507721149 
                               4.48926801141881E-05 -0.321762211726158 
                               0.00016423755554856 173.865455109837 0.000171657678196071 92.5181834377358 3.23988030771615E-05 -29.203338579463 1.55368726229919E-05 -163.063219905915 
                               1.46809688105314E-09 36.3877967238731 9.79347510772504E-10 -47.1962575010488 0.000220455828519972 -73.1657616973235 4.48926801141049E-05 -0.32176221173167 
                               0.00147982151505817 -179.998259682718 
! Gamma         1.20314346904684 3421.39173513925 1.2029422769263  3421.35469948876 3.37475590819036 1278.57110312218 2.03087906621114 3556.3250268169  5198.814436532   4.2178045757847  5200.1223648354  2.79827687867732 2.03094607970171 3556.29380793407 5198.54671978233 4.21729085427102 5200.42561730048 2.79871863326891 
! Port Impedance         529.830540753204 0.464612975663423 529.862250878321 0.464743314540183 7.6594968684314  -0.0163641731152297 332.174705234721 0.226562316929388 40.9413527574026 863.755856790782 2.87675929961748 229.400950277767 331.886075492481 0.225555190764206 8.78274294289039 468.988773785222 0.825135191179455 193.855033463438 
243.333333333333               0.182099009904554 20.6742989169426 0.0285711482603344 53.464710227533  0.135258457647324 -38.0370210648997 0.668460675300562 154.281360518515 
                               6.34791948425476E-05 -5.79467958141267 4.24658687970125E-05 -90.0299086725028 0.652055543956398 168.017876544665 6.92066479480855E-05 -55.3131830841165 
                               0.000165858713108736 150.630337542416 
                               0.028571148260334 53.464710227533  0.135359160991679 -84.6241774848255 0.0168218786408973 -41.2757700502034 0.664379783941304 -106.200410515489 
                               6.3091660156817E-05 93.7235493845841 4.22066185472366E-05 9.48832029349378 0.681108370038895 87.0371933667517 7.22902022943742E-05 -136.29386626203 
                               0.000173248673045243 69.6496543645022 
                               0.135258457647325 -38.0370210648995 0.0168218786408973 -41.2757700502038 0.940209873062816 -61.2266434470779 0.106154683683693 -45.1183014996359 
                               1.00807932283771E-05 154.805658400438 6.74377870840822E-06 70.5704293093466 0.109328349891349 -45.2680381356383 1.1603687280637E-05 91.40090223558   
                               2.78090717690354E-05 -62.6555771378874 
                               0.668460675300562 154.281360518515 0.664379783941304 -106.200410515489 0.106154683683694 -45.1183014996359 0.132464155177428 92.8200869329365 
                               8.74936488489272E-05 64.5080069460312 7.14729167567627E-05 160.015276498137 0.0606282055162612 171.020448529406 6.43484272739905E-06 -52.3106110993755 
                               1.54215637582117E-05 153.632909527157 
                               6.34791948425466E-05 -5.79467958141171 6.3091660156816E-05 93.723549384585  1.0080793228377E-05 154.805658400439 8.74936488489344E-05 64.5080069460301 
                               0.00145272772991744 -179.945293938928 5.85161314922616E-05 -179.783793245978 5.75745113082395E-06 10.9444084294827 6.1107354608411E-10 147.613348800701 
                               1.46448173655708E-09 -6.44313057276706 
                               4.24658687970265E-05 -90.0299086724731 4.22066185472505E-05 9.48832029352338 6.74377870841045E-06 70.5704293093763 7.14729167567386E-05 160.015276498182 
                               5.85161314921881E-05 -179.783793245923 0.00143225536892903 -179.89953001718 3.85157948101452E-06 -73.2908206615808 4.08791716683058E-10 63.3781197096375 
                               9.79698772716505E-10 -90.6783596638312 
                               0.652055543956398 168.017876544665 0.681108370038895 87.0371933667517 0.109328349891349 -45.2680381356382 0.0606282055162612 171.020448529406 
                               5.75745113082404E-06 10.9444084294818 3.85157948101325E-06 -73.2908206616104 0.130502485090468 95.2315657992    0.000107176535747365 142.447608155551 
                               0.00022610907744659 -69.0106304759993 
                               6.92066479480859E-05 -55.3131830841151 7.22902022943746E-05 -136.293866262029 1.16036872806372E-05 91.4009022355816 6.4348427273991E-06 -52.3106110993742 
                               6.11073546084124E-10 147.613348800702 4.08791716682927E-10 63.3781197096093 0.000107176535747363 142.447608155535 0.00149277530942297 -179.878372007892 
                               4.49611833631104E-05 -0.311560427904903 
                               0.000165858713108734 150.630337542415 0.00017324867304524 69.6496543645012 2.78090717690351E-05 -62.6555771378884 1.54215637582114E-05 153.632909527155 
                               1.46448173655709E-09 -6.44313057276904 9.79698772716168E-10 -90.6783596638619 0.000226109077446627 -69.01063047601  4.49611833630273E-05 -0.311560427910817 
                               0.00147654295478683 -179.998403190654 
! Gamma         1.19713743394493 3442.12856634508 1.19693486314179 3442.09175134406 3.25012122311018 1333.07838178148 2.0241248901188  3576.28292122259 5185.11199218234 4.22569586714017 5186.41888758014 2.80689945007703 2.02419136233322 3576.25187654827 5184.84356445677 4.22518641864575 5186.72293974212 2.80734175909937 
! Port Impedance         528.080591939404 0.462006117867614 528.112199651585 0.462135763940676 7.9539005308364  -0.0155216322623568 331.227924423789 0.224726295310177 41.2924514211206 868.263185828402 2.90175265638599 230.628282446656 330.940110798055 0.223725273744114 8.84924144033779 471.500358518237 0.831472646152624 194.898872565236 
244                            0.183436310329048 12.0452334340479 0.0278845040395113 42.1644647269842 0.112155994172964 -52.1250925888777 0.670906289654348 130.758034643842 
                               6.40237783351353E-05 -28.8421822873428 4.29550557452258E-05 -113.734508003389 0.65373250175466 144.462149862867 6.98433660132098E-05 -78.5760091013561 
                               0.000167447827350837 127.512864419974 
                               0.0278845040395106 42.1644647269847 0.124261299632936 -96.3545774237677 0.0139686091072331 -56.3502265703868 0.66506569413941 -129.479451469856 
                               6.3466417346932E-05 70.9203315989594 4.25811091750441E-05 -13.9719941170868 0.682705288368904 63.7754146464086 7.29387558469566E-05 -159.262744317815 
                               0.000174868951675899 46.8261292035149 
                               0.112155994172964 -52.1250925888776 0.0139686091072331 -56.3502265703881 0.948928903617426 -86.3700578593413 0.0887540339308884 -78.7797520968403 