! Touchstone file exported from HFSS 2021.1.0
!        File:           D:/ANSYS/HFSS_work/cp_ant/260204_Cir_to_Rect_STEP_v3_fin.aedt
!        Generated:      4:30:53 %xC624%xD6C4  4 22, 2026
!        Design:         cir_to_rect_OMT_v13_GA7_opt_STEP_exp_QN2_S2S_180deg
!        Project:        260204_Cir_to_Rect_STEP_v3_fin
!        Setup:          Setup1
!        Solution:       Sweep
!
! Variables:
!        diff_ws = 0.061mm
!        fil_r = 100um
!        h1 = 0.292mm
!        h2 = 0.134mm
!        h3 = 0.176mm
!        l1 = 0.527mm
!        l2 = 0.275mm
!        l3 = 0.459mm
!        l4 = 0.313mm
!        l5 = 0.285999999999997mm
!        mov_x = 1mm
!        r_r = 6mm
!        sep_h1 = 0.776mm
!        sep_h2 = 0.484mm
!        sep_h3 = 0.35mm
!        sep_h4 = 0.174mm
!        sep_l = 1.373mm
!        sep_l1 = 1.9mm
!        sep_l2 = 2.175mm
!        sep_l3 = 2.634mm
!        sep_l4 = 2.947mm
!        sep_ll = 0.2004mm
!        sep_ll2 = 0.2505mm
!        sep_ll3 = 1mm
!        sep_w = 0.137mm
!        tr_l = 1.002mm
!        wc_d = 0.9906mm
!        wc_l = 3.8259mm
!        wg_x = 20mm
!        wr_l = 3.7156mm
!        ws_x = 0.8636mm
!        ws_x1 = 0.898mm
!        ws_x2 = 0.776mm
!        ws_x3 = 0.898mm
!        ws_y2 = 0.898mm
!        ws_z = 0
!        wsc_l = 2mm
!
!Data is not renormalized
# GHz S MA
! Terminal data exported
! Port[1] = rec1:1
! Port[2] = rec1:2
! Port[3] = rec1:3
! Port[4] = rec2:1
! Port[5] = rec2:2
! Port[6] = rec2:3
! Port[7] = rec3:1
! Port[8] = rec3:2
! Port[9] = rec3:3
! Port[10] = rec4:1
! Port[11] = rec4:2
! Port[12] = rec4:3
240                            0.112822793012711 -31.4443199145937 0.000294450816927303 97.3012850442557 0.000132171855286437 -69.6260732218567 0.0912654535791561 -33.1025158596553 
                               6.33005764186128E-06 -57.5257689644445 2.03857362186494E-05 127.671841344329 0.119788945281078 -29.7969379452072 1.84149320562249E-05 -107.04477824599 
                               4.68218724772771E-05 164.998383238587 0.905132724282105 -113.310948400739 4.18526897652642E-05 48.934080859253  0.000231310292369084 47.5903411048439 
                               0.000294450816927408 97.3012850442537 0.00190315996770079 -179.882481919937 6.8036626188037E-05 0.686545748979579 2.51615511799398E-05 144.919193565456 
                               1.74517370024925E-09 120.495940460667 5.62027278768104E-09 -54.3064492305592 3.30253733398331E-05 148.224771479905 5.07692930059177E-09 70.9769311791214 
                               1.29086186993617E-08 -16.9799073363011 0.000249541775924116 64.7107610243724 1.15386332313955E-08 -133.044209715635 6.37714001480708E-08 -134.387949470044 
                               0.000132171855286393 -69.6260732218653 6.80366261879818E-05 0.686545748996163 0.001892290436849 -179.934116523415 1.10081177196505E-05 -52.6608254215148 
                               7.63509268414977E-10 -77.0840785263039 2.45885573671096E-09 108.113531782469 1.44485208745847E-05 -49.3552475070666 2.22114427666184E-09 -126.60308780785 
                               5.64748942640491E-09 145.440073676728 0.000109173922772033 -132.869257962599 5.04812410120167E-09 29.3757712973938 2.78998331603887E-08 28.0320315429847 
                               0.091265453579156 -33.1025158596554 2.51615511799362E-05 144.919193565465 1.10081177196525E-05 -52.6608254215126 0.104417859152348 -31.7177809675862 
                               7.68763413607412E-05 -62.3258469749183 0.000246384791491731 110.977257150229 0.906130690116315 66.8066971482848 0.000139297787900199 -10.4411431524984 
                               0.000354179056513282 -98.3979816679209 0.119799052613976 150.44103965664  5.53942250535911E-06 -47.3139310833676 3.06151276407076E-05 -48.6576708377767 
                               6.33005764186383E-06 -57.5257689644469 1.7451737002497E-09 120.495940460673 7.63509268415421E-10 -77.0840785263042 7.68763413607605E-05 -62.3258469749051 
                               0.00149230129838494 -179.888095518791 1.31316584739131E-05 165.417835269224 6.28480906471726E-05 42.3834440434932 9.66152023807797E-09 -34.86439625729  
                               2.45654161059477E-08 -122.821234772712 8.30911236122252E-06 126.017786551848 3.84207412404394E-10 -71.7371841881592 2.12342693843751E-09 -73.0809239425683 
                               2.03857362186587E-05 127.671841344334 5.62027278768281E-09 -54.3064492305456 2.45885573671253E-09 108.113531782477 0.000246384791491779 110.977257150276 
                               1.31316584739379E-05 165.417835269229 0.00196022130167322 -179.930776083616 0.000202400147086555 -132.418945647726 3.11145986637016E-08 150.333214051491 
                               7.91120904690513E-08 62.3763755360686 2.67592149061702E-05 -48.7846031393707 1.23732695745615E-09 113.460426120622 6.83842452875919E-09 112.116686366213 
                               0.119788945281077 -29.7969379452073 3.30253733398284E-05 148.224771479913 1.44485208745873E-05 -49.3552475070644 0.906130690116314 66.8066971482848 
                               6.28480906471473E-05 42.3834440434957 0.000202400147086462 -132.418945647731 0.104153866201475 -30.2411877026474 0.000142800835559228 -19.0998782373915 
                               0.000389090941757947 81.3000575657741 0.0912809874543963 148.307724140455 4.22076757022114E-06 -49.4472465995532 2.33272218862284E-05 -50.7909863539622 
                               1.84149320562236E-05 -107.044778245987 5.07692930059069E-09 70.9769311791339 2.22114427666209E-09 -126.603087807844 0.000139297787900189 -10.4411431524944 
                               9.66152023807342E-09 -34.8643962572835 3.11145986636852E-08 150.33321405149  0.000142800835559237 -19.0998782373931 0.00208048806195128 -179.962722799802 
                               0.000136044055411238 -4.03452534076842 1.40324566516009E-05 71.0598838396752 6.48850758710303E-10 -126.695086900332 3.58605049144886E-09 -128.038826654741 
                               4.68218724772897E-05 164.99838323855  1.29086186993633E-08 -16.9799073363297 5.64748942640744E-09 145.440073676693 0.000354179056513377 -98.397981667958 
                               2.45654161059444E-08 -122.821234772747 7.91120904690362E-08 62.3763755360264 0.000389090941758166 81.3000575658032 0.000136044055411281 -4.03452534077426 
                               0.00284378823705357 -179.851105280543 3.56789747514871E-05 -16.8969546757883 1.64977027275314E-09 145.348074584204 9.11790487714532E-09 144.004334829795 
                               0.905132724282105 -113.310948400739 0.000249541775924079 64.710761024381  0.000109173922772053 -132.869257962596 0.119799052613976 150.44103965664  
                               8.30911236121917E-06 126.017786551851 2.67592149061579E-05 -48.7846031393757 0.0912809874543963 148.307724140455 1.40324566516018E-05 71.0598838396713 
                               3.56789747514775E-05 -16.8969546757512 0.112590908816383 -29.4909664853439 5.14194911824127E-05 116.660763030283 0.000282489021614071 111.159013506249 
                               4.18526897652658E-05 48.9340808592391 1.15386332313943E-08 -133.044209715641 5.04812410120278E-09 29.375771297382  5.53942250535933E-06 -47.3139310833816 
                               3.84207412404255E-10 -71.7371841881707 1.23732695745563E-09 113.460426120603 4.22076757022131E-06 -49.4472465995672 6.48850758710374E-10 -126.69508690035 
                               1.64977027275276E-09 145.348074584227 5.14194911824279E-05 116.660763030275 0.00143147794046676 -179.949560195304 6.40753800601241E-05 -2.00393453244453 
                               0.000231310292369085 47.5903411048574 6.3771400148062E-08 -134.387949470022 2.78998331603939E-08 28.0320315430003 3.06151276407078E-05 -48.6576708377632 
                               2.12342693843667E-09 -73.0809239425524 6.83842452875609E-09 112.116686366221 2.33272218862286E-05 -50.7909863539487 3.58605049144913E-09 -128.038826654732 
                               9.11790487714293E-09 144.004334829845 0.000282489021614047 111.159013506266 6.40753800601057E-05 -2.00393453243272 0.001655452896603 -179.905446957603 
! Gamma         2.05915329213528 3475.90739456523 5252.83580326836 4.18642400133078 5254.27536881724 2.76551960910144 2.05909804775469 3475.91650959495 5252.6065455047  4.18701163642649 5253.91755792412 2.76429043931438 2.05909621125235 3475.91679596372 5252.52272400527 4.18650356336279 5253.90474563581 2.76461259338015 2.05915819685583 3475.91161552216 5252.74881991564 4.18749425505125 5254.55455201707 2.76538069099771 
! Port Impedance         336.187134387338 0.234587848361983 0.000672175410961255 180.185559104286 2.01130303535318 266.245784554507 336.240514009559 0.234716094700359 -22.1603694325488 815.344968998109 -1.39036221450331 217.809345642007 336.226864006766 0.234502019389224 32.6586707544957 703.567007577507 2.4825750944236  209.862826525538 336.203255294071 0.234671213828197 37.1226081416193 863.176600951674 2.47906307910277 221.492472449259 
240.666666666667               0.133671067555237 -74.1076650779294 0.000310926993398389 92.9603605596868 0.000142041758895387 -72.749825138625 0.0893264668352462 -79.7131338352693 
                               6.10900227078735E-06 -104.847267353368 2.01470543108453E-05 81.0741013731443 0.132131716857632 -73.241476309065 2.03360429502649E-05 -149.88164475344 
                               5.19462380539309E-05 121.761375425108 0.901497572812119 -156.714947295817 4.06195696912635E-05 4.32409866598531 0.00023162209005758 4.52740926882622 
                               0.000310926993398329 92.9603605596765 0.0018931280427539 -179.957947018968 6.69133796174685E-05 0.786579447245236 2.44979801444832E-05 98.2684956936119 
                               1.67540731918101E-09 73.1343621755136 5.52537399007663E-09 -100.944269097974 3.62374141810062E-05 104.740153219816 5.57720454041703E-09 28.0999847754412 
                               1.42463701242426E-08 -60.2569950460112 0.000247237693614195 21.2666822330642 1.11400063948503E-08 -177.694271805133 6.35228680176051E-08 -177.490961202292 
                               0.000142041758895453 -72.7498251386167 6.69133796174131E-05 0.786579447238226 0.00188985856658384 -179.858004870922 1.11367038596114E-05 -96.0177989783283 
                               7.61634838786748E-10 -121.151932496427 2.51181744283273E-09 64.7694362300852 1.6473413236186E-05 -89.5461414521239 2.53537944617414E-09 -166.186309896499 
                               6.47635454892123E-09 105.456710282049 0.000112393469195242 -173.019612438876 5.06421147710676E-09 -11.9805664770738 2.88772937708727E-08 -11.7772558742328 
                               0.0893264668352462 -79.7131338352693 2.44979801444873E-05 98.2684956936077 1.11367038596066E-05 -96.0177989783172 0.12576865306426 -74.1583368126839 
                               7.55983980988565E-05 -68.461060145371 0.000252808115377346 106.870830088081 0.902625409841123 23.4086478038982 0.000138920688681488 -53.2315206404771 
                               0.000354857982082036 -141.588500461929 0.132117276061146 107.084570289504 5.95292440515985E-06 -91.8763837486935 3.39449384411982E-05 -91.6730731458525 
                               6.10900227078904E-06 -104.847267353386 1.67540731918175E-09 73.1343621754912 7.61634838786629E-10 -121.151932496434 7.55983980988929E-05 -68.4610601454059 
                               0.00148777193778519 -179.881527702686 1.55423224175312E-05 179.580788509939 6.17302001719333E-05 -1.72548571421835 9.5007317840083E-09 -78.3656541585937 
                               2.42685991638416E-08 -166.722633980046 9.03544904509243E-06 81.9504367713873 4.07118181177268E-10 -117.01051726681 2.32148111714244E-09 -116.807206663969 
                               2.01470543108416E-05 81.0741013731445 5.52537399007655E-09 -100.944269097978 2.51181744283119E-09 64.7694362300967 0.000252808115377297 106.870830088076 
                               1.55423224175174E-05 179.580788509943 0.00195641372578835 -179.93567827049 0.000203581802781426 -175.804116987688 3.13327366336748E-08 107.555714567936 
                               8.00361112550067E-08 19.1987347464843 2.97982673054085E-05 -92.1281945020825 1.34264676022949E-09 68.9108514597201 7.65607935231966E-09 69.1141620625611 
                               0.132131716857631 -73.2414763090648 3.62374141810123E-05 104.740153219812 1.64734132361789E-05 -89.5461414521127 0.902625409841123 23.4086478038982 
                               6.17302001719163E-05 -1.72548571420028 0.000203581802781464 -175.804116987688 0.125726098665388 -73.3914450793138 0.0001323665079165 -19.1043882739267 
                               0.000425115545917597 79.9342077949294 0.0891634200000223 101.668243620838 4.01751470201366E-06 -97.2927104173594 2.29087890194367E-05 -97.0893998145184 
                               2.03360429502644E-05 -149.881644753437 5.57720454041784E-09 28.0999847754404 2.53537944617299E-09 -166.186309896485 0.000138920688681485 -53.2315206404738 
                               9.50073178400546E-09 -78.3656541585722 3.13327366336797E-08 107.55571456794  0.000132366507916492 -19.1043882739371 0.00207299955387509 -179.940371515742 
                               0.000136833147057948 -3.02784023282782 1.37229060655181E-05 25.0280751764663 6.18325058331743E-10 -173.932878861731 3.52583110639346E-09 -173.72956825889 
                               5.19462380539205E-05 121.761375425098 1.42463701242421E-08 -60.2569950460253 6.47635454891715E-09 105.45671028205  0.000354857982081965 -141.588500461939 
                               2.426859916383E-08 -166.722633980038 8.00361112550052E-08 19.198734746474  0.000425115545917704 79.9342077949155 0.000136833147058033 -3.02784023283669 
                               0.00283743435959666 -179.867325608637 3.5053689993398E-05 -63.3289046449994 1.57944496642536E-09 97.7101413168031 9.00635696131097E-09 97.9134519196441 
                               0.901497572812119 -156.714947295817 0.000247237693614237 21.2666822330599 0.000112393469195193 -173.019612438865 0.132117276061146 107.084570289504 
                               9.03544904508993E-06 81.9504367714054 2.97982673054139E-05 -92.1281945020827 0.0891634200000222 101.668243620838 1.37229060655185E-05 25.0280751764628 
                               3.5053689993405E-05 -63.3289046449894 0.133623448152561 -72.779494442344 5.06749937555237E-05 109.910021647643 0.000289497782285573 106.351672241065 
                               4.06195696912666E-05 4.32409866598525 1.11400063948531E-08 -177.694271805138 5.06421147710497E-09 -11.9805664770627 5.9529244051603E-06 -91.8763837486935 
                               4.07118181177187E-10 -117.010517266792 1.34264676022983E-09 68.9108514597198 4.01751470201396E-06 -97.2927104173594 6.18325058331804E-10 -173.932878861735 
                               1.57944496642579E-09 97.7101413168132 5.06749937555305E-05 109.910021647635 0.00142788829957066 -179.921883513798 6.49877440334028E-05 -0.894409505201637 
                               0.000231622090057553 4.52740926881892 6.35228680176081E-08 -177.490961202304 2.88772937708568E-08 -11.777255874229 3.3944938441194E-05 -91.6730731458598 
                               2.32148111714152E-09 -116.807206663958 7.65607935232012E-09 69.1141620625535 2.29087890194339E-05 -97.0893998145257 3.52583110639311E-09 -173.729568258901 
                               9.00635696131168E-09 97.9134519196468 0.000289497782285542 106.351672241066 6.49877440334234E-05 -0.894409505193065 0.00165115625958897 -179.929286933851 
! Gamma         2.05189688796193 3496.10095946334 5239.42378267964 4.19382588904052 5240.86256243373 2.77374941081345 2.05184185595222 3496.1100216867  5239.19394159155 4.19441543086781 5240.50383552645 2.77251523710859 2.05184002083468 3496.11030638952 5239.10990419    4.19390580020682 5240.49099167602 2.77283891475109 2.051901875431   3496.10515612814 5239.33657912857 4.19489919551741 5241.14245963613 2.77360735521812 
! Port Impedance         335.173261168535 0.232532809301568 0.12268926810928 180.974882984088 -5.14201161818537 274.614632330862 335.226498511331 0.232660433709068 -1.00984281917158 799.463186119745 0.0193069003612619 217.595354795355 335.212889938522 0.23244799842977 25.757564597325  715.421025507801 1.96328773972036 211.564089231882 335.189317197027 0.232615744268311 18.5914534191789 886.464837340541 1.3126805327955  223.923704015238 
241.333333333333               0.15974161659853 -116.1512738063  0.000315517606440928 87.3370995713028 0.000137585095838847 -78.1045016639171 0.0872512354064187 -126.689875664242 
                               6.00180592801252E-06 -151.134141725066 1.98246890065302E-05 34.0021358841324 0.140733198772446 -116.627092637718 2.18641648222915E-05 166.899623544182 
                               5.57142331900724E-05 78.5113009948089 0.896822790851606 160.245779138703 4.06188349954017E-05 -38.158869353373 0.000231439597778738 -38.226946057461 
                               0.000315517606440891 87.3370995713154 0.0018855710578725 -179.956965939297 6.56094945309124E-05 0.768166548207292 2.40431248337852E-05 51.5761039754626 
                               1.65386963844343E-09 27.131837914639  5.46293092991446E-09 -147.731884476162 3.87807215632264E-05 61.6388870019872 6.02493296238346E-09 -14.8343968161127 
                               1.53527254642057E-08 -103.222719365485 0.000247130280892764 -21.4882412215914 1.1193007363716E-08 140.107110286332 6.37759581850675E-08 140.039033582245 
                               0.000137585095838854 -78.1045016639273 6.56094945309124E-05 0.768166548210683 0.00188495683387558 -179.858803892725 1.09301202426914E-05 -142.667493030021 
                               7.51857095901352E-10 -167.111759090845 2.48347468784832E-09 18.024518518354  1.7629902631823E-05 -132.604710003497 2.73896351610957E-09 150.922006178403 
                               6.97942287189711E-09 62.5336836290302 0.00011234661486149 144.268161772924 5.08839500724273E-09 -54.1364867191523 2.89928574748367E-08 -54.2045634232402 
                               0.0872512354064187 -126.689875664242 2.40431248337811E-05 51.5761039754424 1.09301202426922E-05 -142.667493030008 0.152035475472315 -116.126259087278 
                               7.21492525789151E-05 -73.5059192725722 0.000244755079191726 102.106698182201 0.898152046500098 -19.6241438587855 0.000139535976951028 -96.0974276768856 
                               0.000355565374732634 175.514249773742 0.140677931160461 63.7510478985921 6.37157499964415E-06 -134.653600593484 3.63042109726101E-05 -134.721677297573 
                               6.0018059280105E-06 -151.134141725045 1.6538696384426E-09 27.1318379146396 7.51857095901158E-10 -167.111759090811 7.21492525788947E-05 -73.5059192725679 
                               0.00148303278134533 -179.881574578064 1.51786330912695E-05 179.569929537062 6.17817530242377E-05 -44.0684099195886 9.5983495217513E-09 -120.541693737689 
                               2.4458500374524E-08 151.069983712939 9.67690184839477E-06 39.3067818377891 4.38285560376309E-10 -159.097866654287 2.49728072745574E-09 -159.165943358376 
                               1.98246890065421E-05 34.0021358841081 5.46293092991683E-09 -147.731884476206 2.48347468785002E-09 18.0245185183427 0.000244755079192069 102.106698182199 
                               1.51786330912522E-05 179.569929537084 0.00195283001850077 -179.935653763542 0.000204072583265037 141.067867689565 3.17045063647851E-08 64.5945838714652 
                               8.0789377281992E-08 -23.7937386779074 3.1963974175828E-05 -135.556940553057 1.44771007838946E-09 26.0384109548665 8.24881950160831E-09 25.9703342507782 
                               0.140733198772446 -116.627092637718 3.87807215632198E-05 61.6388870019668 1.76299026318243E-05 -132.604710003484 0.898152046500097 -19.6241438587855 
                               6.17817530242585E-05 -44.0684099196096 0.000204072583264914 141.06786768959  0.152142887356758 -115.622777136655 0.00012351808605071 -13.7890117882402 
                               0.00045235722030794 75.5651400337289 0.0869004265371763 54.7074904278507 3.93588802888445E-06 -143.697158064226 2.24260578229357E-05 -143.765234768315 
                               2.18641648222886E-05 166.899623544182 6.02493296238165E-09 -14.8343968161331 2.73896351610943E-09 150.922006178416 0.00013953597695101 -96.0974276768855 
                               9.59834952175326E-09 -120.54169373771 3.17045063647617E-08 64.5945838714895 0.000123518086050716 -13.7890117882282 0.00206461341107411 -179.940133276899 
                               0.000135400285793083 -3.08659692733484 1.35007607693772E-05 -21.7657933902493 6.11475510655779E-10 139.829558117674 3.48408924711263E-09 139.761481413586 
                               5.57142331900736E-05 78.5113009947683 1.53527254642034E-08 -103.222719365546 6.97942287189779E-09 62.5336836290028 0.000355565374732641 175.514249773701 
                               2.44585003745327E-08 151.069983712877 8.07893772819449E-08 -23.7937386779236 0.00045235722030819 75.5651400337247 0.000135400285793083 -3.0865969273383 
                               0.00283201235706964 -179.867440648536 3.44026190738231E-05 -110.154115939663 1.55816101221327E-09 51.4412355682606 8.87815118237578E-09 51.3731588641718 
                               0.896822790851606 160.245779138703 0.000247130280892721 -21.4882412216118 0.000112346614861499 144.268161772937 0.140677931160461 63.7510478985921 
                               9.67690184839802E-06 39.3067818377681 3.19639741758087E-05 -135.556940553033 0.0869004265371764 54.7074904278506 1.3500760769379E-05 -21.7657933902492 
                               3.44026190738224E-05 -110.154115939622 0.15985029679433 -115.24305893401 4.87664631715152E-05 104.398666252655 0.000279843743870312 100.929803217666 
                               4.06188349953825E-05 -38.1588693533562 1.11930073637088E-08 140.107110286328 5.08839500724073E-09 -54.1364867191224 6.37157499964113E-06 -134.653600593467 
                               4.3828556037625E-10 -159.097866654291 1.4477100783879E-09 26.0384109549078 3.9358880288826E-06 -143.697158064209 6.1147551065557E-10 139.829558117691 
                               1.5581610122125E-09 51.441235568318  4.87664631714976E-05 104.398666252661 0.00142357196086975 -179.921976970272 6.47075402668415E-05 -0.904918948365212 
                               0.000231439597778688 -38.2269460574558 6.37759581850431E-08 140.039033582229 2.89928574748328E-08 -54.2045634232219 3.63042109726024E-05 -134.721677297567 
                               2.49728072745604E-09 -159.165943358391 8.24881950160157E-09 25.9703342508078 2.2426057822931E-05 -143.765234768309 3.48408924711234E-09 139.761481413591 
                               8.8781511823737E-09 51.3731588642176 0.000279843743870217 100.929803217666 6.4707540266828E-05 -0.904918948385283 0.00164759297014311 -179.929282825258 
! Gamma         2.04477072186522 3516.23408713042 5225.93996046242 4.20134764370675 5227.37797832362 2.7820756411945  2.04471589756346 3516.24309730851 5225.70952989719 4.20193912816296 5227.0183257605  2.78083642335747 2.04471406373966 3516.24338036935 5225.62527432498 4.20142792320729 5227.00545001301 2.78116164180436 2.0447757908058  3516.23825985384 5225.85253438344 4.20242404750413 5227.65859703754 2.78193041466095 
! Port Impedance         334.176773983014 0.230534937527533 0.123607899455961 181.943527478563 -5.18613998657648 276.099974680513 334.229871321295 0.230661952531763 -1.01782028136245 803.749335853701 0.0194865694537149 218.760965856313 334.216303459339 0.230451135473121 25.9749461803333 719.16328570302  1.97998321523176 212.690709052988 334.192766387398 0.230617451787197 18.7338843277883 891.165378195877 1.32282368558307 225.119715056959 
242                            0.187599262727537 -157.800617086634 0.000299234315908358 81.5457664437204 0.000124571152215587 -81.7578948895617 0.0844874465467285 -173.907092282564 
                               5.84602346865257E-06 162.33818131957  1.93384624713905E-05 -13.3111720711319 0.146350158200394 -159.678170528787 2.29508511797584E-05 124.015923274885 
                               5.83415501664082E-05 35.5961218739989 0.891453369679542 117.555271013977 4.05837375122194E-05 -80.2901723874664 0.000231073287182248 -80.6320302905831 
                               0.000299234315908346 81.5457664437464 0.00187800949843173 -179.956161944463 6.42941497030005E-05 0.746312149920037 2.33898106619969E-05 4.64378798684462 
                               1.61843430765477E-09 -19.1109384110221 5.35372998223808E-09 165.239708198276 4.05161077837434E-05 18.8727097406215 6.35379675404574E-09 -57.4331964557067 
                               1.61514860241983E-08 -145.852997856593 0.000246793179141369 -63.8938487166149 1.12353488614664E-08 98.260707881942  6.39711656245727E-08 97.9188499788254 
                               0.000124571152215579 -81.7578948895948 6.42941497030004E-05 0.746312149908776 0.00188006183453268 -179.85965721054 1.06345067151048E-05 170.442510179213 
                               7.35843943391766E-10 146.687783781346 2.43414870986851E-09 -28.9615696093555 1.84212188171404E-05 -175.32856806701 2.88884314728957E-09 108.365525736662 
                               7.34350051248308E-09 19.9457243357755 0.000112207993418484 101.904873475753 5.1083095387318E-09 -95.9405699256898 2.90853910806953E-08 -96.2824278288065 
                               0.0844874465467285 -173.907092282564 2.33898106619885E-05 4.64378798683179 1.06345067151071E-05 170.442510179224 0.179637767879879 -157.808648309952 
                               6.48008932799584E-05 -76.1185151422268 0.000221446087184301 99.3019113989742 0.893078319246901 -62.3113730914001 0.000140053880699182 -138.617279287728 
                               0.000356019933326825 132.962919311386 0.146238740921592 20.74021253236   6.65757164372246E-06 -177.105230869083 3.79064881321754E-05 -177.4470887722  
                               5.84602346865407E-06 162.338181319563 1.61843430765461E-09 -19.1109384110412 7.35843943392113E-10 146.687783781351 6.48008932799889E-05 -76.118515142226 
                               0.00147830299491484 -179.881634175012 1.48145051086608E-05 179.562193281039 6.17956516270841E-05 -86.0660994892731 9.69088671641478E-09 -162.372005685601 
                               2.46344394416766E-08 109.208192913513 1.01188418681965E-05 -3.01451386551301 4.60663940789373E-10 159.140042733044 2.62290113256518E-09 158.798184829927 
                               1.93384624713953E-05 -13.3111720711208 5.35372998223748E-09 165.239708198275 2.43414870986964E-09 -28.9615696093332 0.000221446087184257 99.3019113989648 
                               1.48145051086574E-05 179.562193281003 0.00194924856902875 -179.935731881293 0.000204418079450666 98.2845471200428 3.20571496308203E-08 21.9786409237148 
                               8.14899538465939E-08 -66.4411604771714 3.34728118645671E-05 -178.663867256197 1.52386188297861E-09 -16.5093106576403 8.67647476789382E-09 -16.851168560757 
                               0.146350158200394 -159.678170528787 4.05161077837289E-05 18.8727097406086 1.84212188171443E-05 -175.328568066999 0.893078319246902 -62.3113730914   
                               6.17956516270681E-05 -86.0660994892668 0.000204418079450616 98.2845471200316 0.179810009571985 -157.309919357683 0.000128185696470087 -5.56927549044038 
                               0.000454399112768602 69.3932547508667 0.0839593048597918 7.52646247704282 3.82227776127323E-06 169.6810190756   2.17630593179121E-05 169.339161172483 
                               2.29508511797554E-05 124.015923274888 6.35379675404264E-09 -57.4331964557162 2.88884314728981E-09 108.365525736676 0.000140053880699164 -138.617279287725 
                               9.69088671641103E-09 -162.372005685592 3.20571496308082E-08 21.9786409237069 0.000128185696470075 -5.56927549042894 0.00205623871085197 -179.939837205046 
                               0.000133954303392159 -3.14816005117844 1.31666240384536E-05 -68.7794437192817 5.99415327905225E-10 93.3751128792752 3.41291558385378E-09 93.0332549761584 
                               5.83415501663955E-05 35.5961218739955 1.61514860241889E-08 -145.852997856609 7.34350051248305E-09 19.9457243357831 0.000356019933326747 132.962919311382 
                               2.4634439441665E-08 109.208192913516 8.1489953846556E-08 -66.441160477186 0.000454399112768649 69.3932547508615 0.000133954303392167 -3.14816005118676 
                               0.0028266101688235 -179.867793255337 3.34698373862095E-05 -157.199245120175 1.52372646877411E-09 4.95531147838208 8.67570375449577E-09 4.61345357526547 
                               0.891453369679542 117.555271013977 0.000246793179141281 -63.8938487166278 0.000112207993418508 101.904873475764 0.146238740921592 20.74021253236   
                               1.01188418681939E-05 -3.01451386550675 3.34728118645589E-05 -178.663867256208 0.0839593048597918 7.52646247704282 1.31666240384553E-05 -68.7794437192851 
                               3.34698373862168E-05 -157.199245120171 0.187825979546857 -157.162375904858 4.38937114273738E-05 100.875108781989 0.000252445839472436 97.3223824842494 
                               4.05837375122259E-05 -80.2901723874532 1.12353488614642E-08 98.2607078819423 5.10830953873368E-09 -95.9405699256656 6.65757164372351E-06 -177.10523086907 
                               4.60663940789325E-10 159.140042733063 1.52386188297847E-09 -16.5093106576384 3.82227776127383E-06 169.681019075613 5.99415327905396E-10 93.3751128792851 