! Touchstone file exported from HFSS 2021.1.0
!        File:           D:/ANSYS/HFSS_work/cp_ant/260204_Cir_to_Rect_STEP_v3_fin.aedt
!        Generated:      4:29:34 %xC624%xD6C4  4 22, 2026
!        Design:         cir_to_rect_OMT_v13_GA7_opt_STEP_exp_QN2_Sqaure
!        Project:        260204_Cir_to_Rect_STEP_v3_fin
!        Setup:          Setup1
!        Solution:       Sweep
!
! Variables:
!        diff_ws = 0.061mm
!        fil_r = 100um
!        h1 = 0.292mm
!        h2 = 0.134mm
!        h3 = 0.176mm
!        l1 = 0.527mm
!        l2 = 0.275mm
!        l3 = 0.459mm
!        l4 = 0.313mm
!        l5 = 0.285999999999997mm
!        mov_x = 1mm
!        r_r = 6mm
!        sep_h1 = 0.776mm
!        sep_h2 = 0.484mm
!        sep_h3 = 0.35mm
!        sep_h4 = 0.174mm
!        sep_l = 1.373mm
!        sep_l1 = 1.9mm
!        sep_l2 = 2.175mm
!        sep_l3 = 2.634mm
!        sep_l4 = 2.947mm
!        sep_ll = 0.2004mm
!        sep_ll2 = 0.2505mm
!        sep_ll3 = 1mm
!        sep_w = 0.137mm
!        tr_l = 1.002mm
!        wc_d = 0.9906mm
!        wc_l = 3.8259mm
!        wg_x = 20mm
!        wr_l = 3.7156mm
!        ws_x = 0.8636mm
!        ws_x1 = 0.898mm
!        ws_x2 = 0.776mm
!        ws_x3 = 0.898mm
!        ws_y2 = 0.898mm
!        ws_z = 0
!        wsc_l = 2mm
!
!Data is not renormalized
# GHz S MA
! Terminal data exported
! Port[1] = cir:1
! Port[2] = cir:2
! Port[3] = cir:3
! Port[4] = rec1:1
! Port[5] = rec1:2
! Port[6] = rec1:3
! Port[7] = rec2:1
! Port[8] = rec2:2
! Port[9] = rec2:3
240                            0.113700097568683 92.6897521879261 0.00418955872328521 82.9330559572381 0.177778766828387 88.7506227572417 0.663017245741623 118.832131961113 
                               5.06236492031046E-05 79.3831909420775 5.41862740756669E-05 -44.6752363461183 0.665722231811786 119.015484443735 0.000184346516553395 65.7090048891613 
                               0.000130665632479579 -88.98113208701  
                               0.00418955872328537 82.9330559572348 0.194326371764094 -2.61506281167971 0.000797806264657706 42.8064769803669 0.665580833071283 -142.848984879717 
                               5.08193879210818E-05 177.702074101248 5.43957878500882E-05 53.6436468130521 0.670025814371383 37.1841672987721 0.000185538230477988 -16.1223122558011 
                               0.000131510324620244 -170.812449231972 
                               0.177778766828387 88.7506227572417 0.000797806264657941 42.8064769803838 0.939849829501593 94.9917596685037 0.132890791122554 -54.9359019729475 
                               1.01466693895515E-05 -94.3848429919826 1.08607383535617E-05 141.556729719822 0.133166880852904 -55.5350412465744 3.68755156917372E-05 -108.841520801148 
                               2.61375298592955E-05 96.4683422226812 
                               0.663017245741622 118.832131961113 0.665580833071283 -142.848984879717 0.132890791122554 -54.9359019729475 0.10907276175916 -86.2333845012224 
                               7.80982282387907E-05 -56.8627554695393 8.84742921835349E-05 77.0531223990389 0.0806793270562396 54.1017865540316 2.23410788914358E-05 0.795306999458599 
                               1.5835456282029E-05 -153.894829976713 
                               5.06236492031177E-05 79.3831909420789 5.0819387921095E-05 177.702074101249 1.01466693895541E-05 -94.3848429919813 7.80982282388321E-05 -56.8627554695474 
                               0.00160928189322078 -179.908100407001 4.34566220006966E-05 -1.50549081058116 6.16014436588322E-06 14.6528455349976 1.70581828434063E-09 -38.6536340195754 
                               1.20909160197795E-09 166.656229004253 
                               5.41862740756827E-05 -44.6752363461536 5.43957878501041E-05 53.6436468130167 1.08607383535649E-05 141.556729719786 8.84742921835789E-05 77.0531223990474 
                               4.34566220006884E-05 -1.50549081058372 0.00179805684914935 -179.941154809502 6.59366276848643E-06 -109.405581753235 1.82586475952623E-09 -162.712061307808 
                               1.29418107858071E-09 42.5978017160205 
                               0.665722231811786 119.015484443734 0.670025814371383 37.1841672987721 0.133166880852904 -55.5350412465744 0.0806793270562397 54.1017865540316 
                               6.16014436588164E-06 14.6528455349963 6.5936627684845E-06 -109.4055817532  0.115100197205129 -87.5163080041568 0.000269169324295681 -43.8489307536735 
                               0.000208540119893812 113.092383656349 
                               0.000184346516553411 65.7090048891634 0.000185538230478004 -16.122312255799 3.68755156917404E-05 -108.841520801145 2.23410788914378E-05 0.795306999460638 
                               1.70581828434034E-09 -38.6536340195746 1.82586475952585E-09 -162.71206130777 0.000269169324295722 -43.8489307536799 0.00438160538725943 -179.855182132186 
                               0.00023503190033348 177.890381340587 
                               0.000130665632479627 -88.9811320870027 0.000131510324620293 -170.812449231965 2.61375298593051E-05 96.4683422226884 1.58354562820349E-05 -153.894829976706 
                               1.20909160197808E-09 166.656229004259 1.29418107858081E-09 42.597801716063  0.000208540119893849 113.092383656353 0.000235031900333379 177.890381340568 
                               0.0024086234279702 -179.9207142286  
! Gamma         1.22987297790476 3615.37156560013 1.22990030689831 3615.3692514394  9.70036653771106 916.568895730162 2.05920025868722 3475.90135940201 5252.84452645697 4.18775978922548 5254.78784386919 2.76585101217173 2.0591029099217  3475.91622139658 5252.56229566654 4.1869522085051  5253.95480236633 2.76440905669875 
! Port Impedance         644.131036701788 3.93657213020162 643.486789460316 4.08628935610567 636.532354899156 6.98783395215125 336.119933036682 0.234324905063648 12.1486083826617 886.764116056468 0.670496768540433 222.187606880441 336.213953836893 0.23452338763188 14.3576960730077 877.810759775366 0.993762184365604 222.57200907887  
240.666666666667               0.121978723015231 94.3237303791259 0.00340078612774649 77.6599694420976 0.160331333056969 82.3213648218113 0.666653521314866 97.2310633519012 
                               5.11102249865876E-05 58.7143507094486 5.43205209365891E-05 -66.3155285364218 0.665256333249566 97.3737515820027 0.00018641660640442 44.8320305061439 
                               0.000131042317558556 -110.444511726168 
                               0.00340078612774642 77.6599694421002 0.196153022876636 -6.39475404124687 0.000508847939258766 98.0072864225509 0.667448781606284 -164.044368926578 
                               5.11711950874236E-05 157.438918430969 5.43853206442766E-05 32.409039185099  0.667829828025501 16.0447288255719 0.000187137745217765 -36.4969922502869 
                               0.000131549245043208 168.226465517402 
                               0.160331333056969 82.3213648218112 0.000508847939258678 98.0072864225524 0.946380668516802 81.2752388942971 0.12126370461455 -84.0094363632415 
                               9.29690615498822E-06 -122.526149005694 9.88085623904161E-06 112.443971748436 0.121449409774567 -84.5532729930622 3.40322755131162E-05 -137.094994068921 
                               2.39231275638342E-05 67.6284636987675 
                               0.666653521314866 97.2310633519012 0.667448781606284 -164.044368926578 0.12126370461455 -84.0094363632415 0.117970848613813 -124.058030326462 
                               7.40434369174097E-05 -57.8982160287183 9.14961905830152E-05 73.0959716222413 0.0775713820744554 10.9634120075609 2.1736875062557E-05 -41.5783090682978 
                               1.52800254205824E-05 163.145148699391 
                               5.11102249865795E-05 58.7143507094378 5.11711950874154E-05 157.438918430958 9.29690615498674E-06 -122.526149005705 7.4043436917392E-05 -57.8982160287353 
                               0.00160586746633811 -179.884220673287 4.46329743517617E-05 0.377904141753512 5.9471534516545E-06 -27.5533006349024 1.66649772247695E-09 -80.095021710761 
                               1.17147140467554E-09 124.628436056927 
                               5.43205209365811E-05 -66.3155285364102 5.43853206442685E-05 32.4090391851106 9.88085623904013E-06 112.443971748447 9.14961905829719E-05 73.0959716222612 
                               4.46329743517626E-05 0.377904141767691 0.00179376236036738 -179.962488786364 6.32070145784887E-06 -152.583179880751 1.77117248942542E-09 154.87509904339  
                               1.24505296114411E-09 -0.401443188921007 
                               0.665256333249566 97.3737515820027 0.667829828025501 16.0447288255719 0.121449409774567 -84.5532729930622 0.0775713820744553 10.963412007561  
                               5.94715345165545E-06 -27.5533006348916 6.32070145784981E-06 -152.583179880763 0.124035525767453 -124.847674294242 0.000253325685054031 -42.8033732259799 
                               0.000197515185262084 110.219392411572 
                               0.000186416606404454 44.8320305061468 0.000187137745217798 -36.4969922502838 3.40322755131222E-05 -137.094994068918 2.17368750625609E-05 -41.5783090682946 
                               1.66649772247751E-09 -80.0950217107474 1.771172489426E-09 154.875099043382 0.000253325685054091 -42.8033732259846 0.00437510378382921 -179.87998875327 
                               0.00024130713532394 179.837502211927 
                               0.000131042317558575 -110.444511726186 0.000131549245043227 168.226465517384 2.39231275638376E-05 67.6284636987495 1.52800254205845E-05 163.145148699373 
                               1.17147140467589E-09 124.62843605692  1.24505296114448E-09 -0.401443188950581 0.000197515185262103 110.219392411563 0.000241307135323818 179.837502211913 
                               0.00239802815554243 -179.875452812353 
! Gamma         1.22506718266727 3634.78770811206 1.22509422355003 3634.7854061769  8.99028989812556 990.387901255212 2.05194369059761 3496.09495930403 5239.43252989011 4.19516623572635 5241.37634710404 2.77407895996717 2.051846710101   3496.10973517514 5239.14957820759 4.19435626499031 5240.54117555738 2.7726338241983  
! Port Impedance         642.490131151087 0.660741005824608 641.848983976468 0.660712107007928 590.624135069072 5.59057018765546 335.106210376982 0.23227078633795 9.31121341327344 862.644616131038 0.689854353475032 221.889960904856 335.200012048657 0.232468913537218 -0.485764562073035 888.728689026766 0.058141050004954 224.161199435188 
241.333333333333               0.132423818801889 93.7204703720281 0.00304135416576539 69.8601723603944 0.142910443140393 76.2373449030146 0.667728389248729 75.73835176667   
                               5.15113658582089E-05 37.5006712733896 5.47907157962309E-05 -87.9538232602744 0.666377081697929 75.8885096054349 0.000188704310955798 23.8926823904755 
                               0.000132725738165785 -131.602571425787 
                               0.00304135416576584 69.8601723603949 0.196902046775181 -11.0573707427527 0.000527921405148738 104.762784890413 0.667424000253905 174.882563508632 
                               5.14878840156991E-05 136.644883015352 5.47657390374536E-05 11.1903884816876 0.667821226154787 -5.01915345110268 0.000189113263022333 -57.0149806660621 
                               0.000133013375817677 147.489765517675 
                               0.142910443140393 76.2373449030147 0.000527921405148569 104.762784890447 0.951856340290991 67.2229457308743 0.109701991442098 -113.259815727415 
                               8.46287129248158E-06 -151.497496220695 9.00164008624412E-06 83.0480092456406 0.109774704619938 -113.739646977952 3.10859430262818E-05 -165.735474192911 
                               2.18643904521567E-05 38.7692719908263 
                               0.66772838924873 75.73835176667   0.667424000253905 174.882563508632 0.109701991442098 -113.259815727415 0.126788450395883 -160.443338691054 
                               6.93107946655496E-05 -56.0390063011978 9.09362815391298E-05 69.331642064403  0.0748514202667239 -31.8956209812573 2.11963857603042E-05 -83.8914481962167 
                               1.49085409455329E-05 120.61329798752  
                               5.1511365858244E-05 37.5006712733925 5.14878840157343E-05 136.644883015355 8.46287129248735E-06 -151.497496220692 6.93107946655976E-05 -56.0390063012162 
                               0.00160176893189195 -179.884203513333 4.43706828005963E-05 0.383592355641848 5.77435220135915E-06 -70.1333014745349 1.63517801452169E-09 -122.129128689494 
                               1.15010731821961E-09 82.3756174942429 
                               5.47907157962429E-05 -87.9538232602663 5.47657390374655E-05 11.1903884816957 9.00164008624607E-06 83.0480092456488 9.09362815391403E-05 69.3316420644146 
                               4.4370682800611E-05 0.383592355640636 0.00179016159107001 -179.962446502814 6.14196275134176E-06 164.412203991806 1.73927777641295E-09 112.416376776847 
                               1.22332619525489E-09 -43.0788770394161 
                               0.666377081697928 75.8885096054349 0.667821226154787 -5.01915345110269 0.109774704619938 -113.739646977952 0.074851420266724 -31.8956209812575 
                               5.77435220135521E-06 -70.1333014745378 6.14196275134042E-06 164.412203991798 0.132253680843525 -160.932751717558 0.000244515692202149 -39.0724119455716 
                               0.000184178513468058 110.306011404723 
                               0.000188704310955778 23.8926823904716 0.000189113263022314 -57.0149806660659 3.10859430262785E-05 -165.735474192915 2.1196385760302E-05 -83.8914481962207 
                               1.6351780145204E-09 -122.129128689501 1.7392777764124E-09 112.416376776834 0.000244515692202111 -39.0724119455695 0.00437060312606852 -179.880129142602 
                               0.000239832002096013 179.835688247726 
                               0.000132725738165786 -131.602571425798 0.000133013375817679 147.489765517664 2.1864390452157E-05 38.7692719908153 1.49085409455331E-05 120.61329798751  
                               1.15010731821884E-09 82.3756174942292 1.22332619525464E-09 -43.0788770394351 0.000184178513468051 110.306011404715 0.000239832002095901 179.83568824771  
                               0.00238549625709983 -179.875016318008 
! Gamma         1.22033608915912 3654.15411696951 1.22036284563508 3654.15182709897 8.41790103074195 1059.25998210535 2.04481736418734 3516.22812147069 5225.9487319402  4.20269260261445 5227.89308639127 2.78240331018461 2.04472074392916 3516.24281245952 5225.66505177391 4.20188022664026 5227.05576238403 2.78095498078465 
! Port Impedance         640.853700564707 0.660154085750581 640.214123322905 0.660199839003071 553.679513070109 4.61278596693075 334.109871628562 0.230273817767944 9.38093805605303 867.240938402272 0.695091773459966 223.076362878931 334.203457358513 0.230471601199254 -0.488945620774268 893.488212630423 0.058662921576183 225.361642667469 
242                            0.142976532260497 91.0396359602718 0.00259157547603477 67.2592888746215 0.125702564365881 70.5291535916929 0.668441856232698 54.3763477688631 
                               5.18851460577658E-05 16.4152276770416 5.52353707246156E-05 -109.460621967605 0.667178984303627 54.5281729570785 0.000190929283318447 3.0759053919901  
                               0.000134355851803277 -152.64472375382 
                               0.00259157547603488 67.2592888746201 0.195374579584215 -16.383329455137 0.00052489540150376 107.187333025181 0.667679251417335 153.895902659232 
                               5.18259518857363E-05 115.934782567411 5.51723543840017E-05 -9.94106707723568 0.668153000445047 -25.9961271840357 0.000191208021420511 -77.4483947491241 
                               0.000134551998221899 126.830976105066 
                               0.125702564365881 70.529153591693  0.000524895401503772 107.18733302518  0.956216762797532 52.56898730958   0.0979953401340188 -142.851111169607 
                               7.60649933636709E-06 179.187768738571 8.0976511137313E-06 53.3119190939249 0.0979136242382306 -143.257634448695 2.80203341872791E-05 165.290097986217 
                               1.97177499549156E-05 9.56946884040635 
                               0.668441856232698 54.3763477688631 0.667679251417335 153.895902659232 0.0979953401340189 -142.851111169607 0.134179943487128 164.324083112194 
                               6.73819337628665E-05 -51.6437034073296 8.69297907528448E-05 66.4586201713603 0.0724374997545343 -74.5011626524599 2.07297295611747E-05 -125.953430217548 
                               1.45873929050364E-05 78.3259406366411 
                               5.18851460577555E-05 16.4152276770479 5.18259518857261E-05 115.934782567417 7.60649933636559E-06 179.187768738578 6.73819337628491E-05 -51.6437034072905 
                               0.00159767068851415 -179.884179635466 4.41064150720504E-05 0.389345959319714 5.62267341546345E-06 -112.462282744275 1.60906298130572E-09 -163.914550309363 
                               1.13228847718387E-09 40.364820544826  
                               5.52353707246022E-05 -109.460621967542 5.51723543839882E-05 -9.9410670771726 8.09765111372934E-06 53.311919093988  8.69297907528288E-05 66.4586201713119 
                               4.41064150720365E-05 0.389345959304609 0.00178657144731054 -179.962415360205 5.98572952306586E-06 121.661867611136 1.71296020238089E-09 70.2096000460477 
                               1.20540036130626E-09 -85.5110290997631 
                               0.667178984303626 54.5281729570784 0.668153000445047 -25.9961271840357 0.0979136242382307 -143.257634448695 0.0724374997545341 -74.5011626524599 
                               5.62267341546457E-06 -112.462282744281 5.98572952306731E-06 121.661867611073 0.138641391910031 163.859892227835 0.000250726610111928 -34.4316360418009 
                               0.000174423551250704 113.542858865002 
                               0.000190929283318463 3.07590539199254 0.000191208021420528 -77.4483947491216 2.80203341872816E-05 165.290097986219 2.07297295611765E-05 -125.953430217546 
                               1.60906298130619E-09 -163.914550309367 1.71296020238147E-09 70.2096000459871 0.000250726610111952 -34.4316360418052 0.00436614606462127 -179.880221845405 
                               0.000238338667259064 179.83333289694  
                               0.000134355851803267 -152.64472375383 0.000134551998221889 126.830976105056 1.97177499549142E-05 9.56946884039676 1.45873929050354E-05 78.3259406366316 
                               1.13228847718402E-09 40.3648205448101 1.20540036130647E-09 -85.5110290998357 0.000174423551250702 113.542858864998 0.000238338667258954 179.833332896923 
                               0.00237298785039883 -179.874558156238 
! Gamma         1.21567803507531 3673.47157872536 1.21570451076753 3673.46930076205 7.94387813067109 1124.09429554024 2.03781805674856 3536.30187812851 5212.39257553892 4.21034042918985 5214.33750511123 2.79082537066471 2.03772178893069 3536.31648544643 5212.1081591777  4.20952563274319 5213.49800587416 2.78937383459069 
! Port Impedance         639.243020714968 0.659578440667649 638.604988577163 0.659696215366135 523.131830750845 3.89678694930583 333.130471526921 0.228332082083511 9.45123698813478 871.875103577746 0.7003782721697  224.2721305014   333.223844436281 0.228529533075734 -0.492046200314523 898.285524634122 0.0592032262690086 226.571485568826 
242.666666666667               0.15182701824357 86.80645724032   0.00228469330379947 72.5532903170946 0.108712171370027 65.1389909027826 0.669021804939519 33.137802226345  
                               5.22488067535461E-05 -4.54924874137234 5.5672879005323E-05 -130.843155554788 0.667837876637277 33.2849293105806 0.000193139793095241 -17.6261149705222 
                               0.000135966175670073 -173.578664819074 
                               0.00228469330379955 72.5532903170934 0.190912668211534 -22.0666152904073 0.000482554807877598 114.016169613836 0.66829795922218 132.980575873756 
                               5.21922763464273E-05 95.2935249060391 5.56126439356402E-05 -31.000381907377 0.668905260400752 -46.9051854016179 0.000193448482204444 -97.8162296827207 
                               0.000136183486028424 106.231220468728 
                               0.108712171370026 65.1389909027826 0.000482554807877632 114.016169613875 0.959376738001865 36.966933277415  0.085821254946326 -173.015982272091 
                               6.702409595518E-06 149.296966760192 7.14164517125676E-06 23.0030599467758 0.0855222712228083 -173.33411563561 2.4733179034677E-05 135.754840083288 
                               1.74116152431102E-05 -20.1977097652638 
                               0.669021804939519 33.137802226345  0.66829795922218 132.980575873756 0.0858212549463261 -173.015982272091 0.139065234696027 129.828542343947 
                               6.97351991663555E-05 -46.970973339374 8.0842204843722E-05 65.7701264645184 0.0702581934887098 -116.88598966479 2.03187830884664E-05 -167.797033945893 
                               1.4303977375839E-05 36.2504162055559 
                               5.22488067535601E-05 -4.54924874137942 5.21922763464412E-05 95.293524906032  6.70240959551979E-06 149.296966760185 6.9735199166371E-05 -46.9709733393772 
                               0.00159357315652488 -179.884145738856 4.38400847437104E-05 0.395448467491382 5.48697627991016E-06 -154.573040632514 1.58684240665781E-09 154.515915086383 
                               1.11710222925405E-09 -1.43663476216834 
                               5.56728790053265E-05 -130.843155554735 5.56126439356438E-05 -31.0003819073237 7.14164517125721E-06 23.0030599468291 8.08422048436257E-05 65.7701264645155 
                               4.38400847437103E-05 0.395448467468766 0.00178299232311947 -179.962390748961 5.84655967316849E-06 79.1330525541304 1.69083450504565E-09 28.2220082730279 
                               1.19031038429609E-09 -127.730541575524 
                               0.667837876637277 33.2849293105806 0.668905260400752 -46.9051854016179 0.0855222712228083 -173.33411563561 0.0702581934887098 -116.88598966479 
                               5.4869762799087E-06 -154.573040632507 5.84655967316805E-06 79.1330525540769 0.142449753079487 129.112669703038 0.000271208697467823 -31.6048702464218 
                               0.000174629635429406 118.696520107094 
                               0.000193139793095243 -17.6261149705247 0.000193448482204447 -97.8162296827232 2.47331790346773E-05 135.754840083285 2.03187830884665E-05 -167.797033945895 
                               1.5868424066574E-09 154.515915086387 1.69083450504555E-09 28.2220082729722 0.000271208697467824 -31.6048702464274 0.00436173623782009 -179.880265596096 
                               0.000236824010617465 179.830214631104 
                               0.000135966175670057 -173.578664819058 0.000136183486028408 106.231220468743 1.74116152431082E-05 -20.1977097652486 1.43039773758374E-05 36.2504162055711 
                               1.11710222925363E-09 -1.43663476214607 1.19031038429587E-09 -127.730541575562 0.000174629635429356 118.696520107107 0.000236824010617343 179.83021463109  
                               0.00236050448083414 -179.874054406956 
! Gamma         1.2110914090357  3692.74086150683 1.21111760748881 3692.73859529676 7.54301149788288 1185.553187567   2.03094265471122 3556.31723518686 5198.76349480028 4.21811129278879 5200.70903783868 2.79934648007377 2.03084673175896 3556.33176001639 5198.47833441084 4.2172940606212  5199.86734024206 2.79789172457905 
! Port Impedance         637.657496886403 0.659111289073939 637.020985862551 0.659302992214905 497.337052083264 3.35373342660858 332.167580179493 0.226443744590898 9.5223575628093  876.54947410514  0.705729249619687 225.47752580807  332.260743325409 0.226640874208292 -0.495155338551841 903.122759923719 0.0597561439317096 227.790984690487 
243.333333333333               0.15771491490056 81.6141308211773 0.00237773412805753 81.7523981314574 0.0915468967987672 59.9317599027922 0.669696261021242 12.0076952584434 
                               5.26200984748694E-05 -25.4077085426255 5.61221154522321E-05 -152.116343618802 0.668537769139756 12.1458600984985 0.000195388812631167 -38.2262683926849 
                               0.000137593132702758 165.582857108318 
                               0.00237773412805729 81.75239813146   0.183416904090042 -27.7564319500449 0.000494858559456088 132.376555910864 0.669282243822713 112.120081115447 
                               5.25875678680482E-05 74.704677314378  5.60874198411509E-05 -52.0039577617983 0.670047021682843 -67.7658071731703 0.000195829911213725 -118.137935664354 
                               0.000137903755071498 85.6711898366493 
                               0.091546896798767 59.9317599027923 0.000494858559455984 132.376555910854 0.961196890120334 19.9519646797485 0.0727061036954888 155.892725916957 
                               5.71274256533342E-06 118.477322115888 6.09294180537582E-06 -8.23131296028827 0.0721057384749972 155.691390923904 2.10738349796629E-05 105.319262432721 
                               1.48402302765734E-05 -50.871612066276 
                               0.669696261021242 12.0076952584434 0.669282243822713 112.120081115447 0.0727061036954888 155.892725916957 0.140752991087991 95.6053348322192 
                               7.55599174301045E-05 -44.5790342131683 7.52225432500234E-05 68.2393067530232 0.0682316654963284 -159.082720440008 1.99415870285522E-05 150.545151068809 
                               1.40428993521889E-05 -5.64572343018861 
                               5.26200984748524E-05 -25.4077085426218 5.25875678680312E-05 74.7046773143816 5.71274256533157E-06 118.477322115892 7.5559917430078E-05 -44.5790342131545 
                               0.00158947695111212 -179.884102873817 4.3572078413024E-05 0.402095169466286 5.36117217086583E-06 163.501875758927 1.56687193024954E-09 113.129747267743 
                               1.103393866434E-09 -43.0611272312539 
                               5.61221154521703E-05 -152.116343618807 5.6087419841089E-05 -52.0039577618034 6.0929418053691E-06 -8.23131296029337 7.52225432500834E-05 68.2393067529673 
                               4.35720784130317E-05 0.402095169445593 0.00177942458984599 -179.962365498716 5.71797340280709E-06 36.793240682742  1.67115170660989E-09 -13.5788878084412 
                               1.17682786152177E-09 -169.769762307439 
                               0.668537769139756 12.1458600984986 0.670047021682843 -67.7658071731704 0.0721057384749972 155.691390923904 0.0682316654963284 -159.082720440008 
                               5.36117217086755E-06 163.501875758923 5.71797340281341E-06 36.7932406827471 0.143325216178755 94.4083556177722 0.000298204012074935 -31.8559591010335 
                               0.000186484961574504 122.849566671233 
                               0.00019538881263115 -38.2262683926859 0.000195829911213708 -118.137935664355 2.1073834979661E-05 105.31926243272  1.99415870285504E-05 150.545151068808 
                               1.5668719302499E-09 113.129747267738 1.67115170661158E-09 -13.5788878084372 0.000298204012074911 -31.8559591010282 0.00435737606236801 -179.880279710997 
                               0.000235288289102135 179.826402792197 
                               0.000137593132702748 165.582857108321 0.000137903755071489 85.6711898366523 1.48402302765723E-05 -50.871612066273 1.4042899352188E-05 -5.64572343018564 
                               1.10339386643428E-09 -43.0611272312547 1.17682786152298E-09 -169.769762307431 0.000186484961574474 122.849566671225 0.000235288289102015 179.82640279218  
                               0.0023480490456692 -179.873496925903 
! Gamma         1.20657464859249 3711.9627155955  1.2066005732751  3711.96046098798 7.19829610819217 1244.13681485266 2.02418814894132 3576.27517314229 5185.06091482607 4.22600680979389 5187.00711014856 2.80796800876817 2.02409256349477 3576.28961663815 5184.77500245025 4.22518712665483 5186.16319069407 2.80651002141411 
! Port Impedance         636.096545716518 0.658659692773084 635.461532306554 0.658923066234807 475.187094855807 2.93014460400924 331.220782396524 0.224607048860873 9.5942347537733  881.260051201781 0.711142946623417 226.692403737101 331.313738773808 0.224803867910438 -0.498264311699891 907.997344418372 0.060322388100623 229.020069527304 
244                            0.159990976618798 76.021522849453  0.00285609360491988 85.0428860225531 0.0732704184177453 54.877486075934  0.670627447497236 -9.03750954542351 
                               5.30120092686644E-05 -46.1836222910037 5.65969362024066E-05 -173.303622281311 0.669421541835779 -8.9088544323408 0.00019771932143431 -58.7443597365484 
                               0.000139266357125071 144.820160794426 
                               0.00285609360491997 85.0428860225509 0.173338240094384 -33.0728112827498 0.000699546154262276 147.60419793162  0.670554603286322 91.2996739260966 
                               5.3006251052238E-05 54.1535611805165 5.65907885877014E-05 -72.9664388097903 0.671450673748956 -88.5933483260629 0.000198318642728743 -138.42885363027 
                               0.000139688497423842 65.1356669007038 
                               0.0732704184177455 54.8774860759338 0.000699546154262415 147.604197931627 0.961425028719261 0.896755491549186 0.0579838978837448 123.284628735786 