! Touchstone file exported from HFSS 2021.1.0
!        File:           D:/ANSYS/HFSS_work/cp_ant/260204_Cir_to_Rect_STEP_v3_fin.aedt
!        Generated:      11:02:27 %xC624%xC804  6 18, 2026
!        Design:         cir_to_rect_OMT_v13_GA7_opt_STEP_exp_QN2_S_CW_S
!        Project:        260204_Cir_to_Rect_STEP_v3_fin
!        Setup:          Setup1
!        Solution:       Sweep
!
! Variables:
!        diff_ws = 0.0610877997211628mm
!        fil_r = 100um
!        h1 = 0.291824400557674mm
!        h2 = 0.134mm
!        h3 = 0.176mm
!        l1 = 0.527mm
!        l2 = 0.275mm
!        l3 = 0.459mm
!        l4 = 0.313mm
!        l5 = 0.285999999999997mm
!        mov_x = 1mm
!        r_r = 6mm
!        sep_h1 = 0.775824400557674mm
!        sep_h2 = 0.484mm
!        sep_h3 = 0.35mm
!        sep_h4 = 0.174mm
!        sep_l = 1.373mm
!        sep_l1 = 1.9mm
!        sep_l2 = 2.175mm
!        sep_l3 = 2.634mm
!        sep_l4 = 2.947mm
!        sep_ll = 0.2004mm
!        sep_ll2 = 0.2505mm
!        sep_ll3 = 1mm
!        sep_w = 0.137mm
!        tr_l = 1.002mm
!        wc_d = 0.9906mm
!        wc_l = 3.8259mm
!        wg_x = 20mm
!        wr_l = 3.7156mm
!        ws_x = 0.8636mm
!        ws_x1 = 0.898mm
!        ws_x2 = 0.775824400557674mm
!        ws_x3 = 0.898mm
!        ws_y2 = 0.898mm
!        ws_z = 0
!        wsc_l = 2mm
!
!Data is not renormalized
# GHz S MA
! Terminal data exported
! Port[1] = rec1:1
! Port[2] = rec1:2
! Port[3] = rec1:3
! Port[4] = rec2:1
! Port[5] = rec2:2
! Port[6] = rec2:3
! Port[7] = rec3:1
! Port[8] = rec3:2
! Port[9] = rec3:3
! Port[10] = rec4:1
! Port[11] = rec4:2
! Port[12] = rec4:3
240                            0.131398802517632 -62.7354582809523 3.44294055845128E-05 -67.0161422342109 6.2773514421369E-05 155.741468822478 0.0260975473481496 -29.798920554752 
                               4.72478464775512E-07 -34.0676425135473 8.07790581411305E-07 -124.779747395275 0.0528191574231388 -60.2945951274982 4.63410761342295E-06 -35.6950112048998 
                               6.846986784825E-06 119.204687916943 0.906326820122562 30.0807862507722 5.97525221418205E-05 -123.032876776022 1.96574375599917E-05 154.787509135237 
                               3.43661201937764E-05 -67.0682128856072 0.000926254852350323 -179.710037040055 9.97474866375416E-05 0.379023808344066 8.32193447448448E-07 -52.7683071092579 
                               1.40925956477373E-11 -63.2716025076619 2.41806401509234E-11 -145.433852254579 1.68340241800255E-06 -83.2693463816028 1.50428712616501E-10 -57.8481435867368 
                               2.16932391640115E-10 95.1531735029629 2.88858660173948E-05 7.11875584119954 1.87827429185316E-09 -145.3115319144  6.3224541316534E-10 132.562220794689 
                               6.26939685081154E-05 155.748522490159 9.97485030169858E-05 0.379182468069331 0.000954981480017606 179.876206316591 1.74404941451493E-06 77.0745744600793 
                               3.1588605126273E-11 69.4485025208973 5.63144186625572E-11 -15.8351259142352 3.52772111821132E-06 46.5810761832996 3.10474201618951E-10 70.1046818163461 
                               4.57184626689117E-10 -133.82680232954 6.04915059949754E-05 136.965383429826 4.02659063581643E-09 -15.9586662442176 1.30860786480952E-09 -97.3707962219202 
                               0.0260962130563702 -29.7950702765819 8.36115851418498E-07 -52.8200036501468 1.74512103878935E-06 77.0350806089171 0.130059678828039 -62.2273549032495 
                               2.11210101082875E-05 -84.4249398371713 2.83517233255704E-05 1.69930499632668 0.906590043429465 -149.957782634183 7.95255285724035E-05 -125.634151019045 
                               0.000117132280384259 29.5836084995224 0.052805294876844 117.461905572403 3.49159556854023E-06 -35.8732222608833 1.14886771675466E-06 -118.140262929209 
                               4.8130279914473E-07 -32.6606452456037 1.55705937571686E-11 -57.4967017629538 3.28661974940906E-11 63.5468872289246 2.14192967663409E-05 -84.5372938236526 
                               0.00110772047001077 -179.944630572473 3.69408934243365E-05 179.306004696728 1.67377654130382E-05 -153.075326095824 1.51325632280247E-09 -131.379820946879 
                               2.20562128238191E-09 25.5373858368564 9.74332625772244E-07 114.479205049638 7.08906825318785E-11 -37.0787455961293 2.21462235968715E-11 -124.575193269044 
                               8.31815334031405E-07 -124.936117639235 2.60233961436084E-11 -148.812868285334 4.95697563928277E-11 -16.3282896308105 2.83704562631361E-05 2.61447392954416 
                               3.69148029743215E-05 179.304144542556 0.0011421700675255 -179.934237257643 2.8720910722634E-05 114.978247173542 2.41645480366826E-09 138.168332238275 
                               3.76201313745516E-09 -63.7013916060538 1.67726205281571E-06 22.482086096295  1.04693017290486E-10 -128.703674026454 3.22353867082376E-11 142.047964401567 
                               0.0528178450665604 -60.2944074355203 1.6864627722962E-06 -83.3826290932561 3.53164705463049E-06 46.54320166429   0.906582140719706 -149.957716360548 
                               1.64744472884383E-05 -153.23457179836 2.86835888104635E-05 115.753399935235 0.130162216738642 -61.4182953602747 8.92175981040449E-05 -104.113791646606 
                               0.000142745432343685 92.3805534984525 0.0237069169041871 138.836837688653 1.554057415246E-06 -14.5289065126518 5.20200074469209E-07 -95.8841675147796 
                               4.62104632966703E-06 -36.0794659947811 1.48341059560485E-10 -58.9506651381026 3.09575166986588E-10 70.7991520256924 7.92996217734104E-05 -125.746163468348 
                               1.44467299642313E-09 -129.25975106098 2.50470574989822E-09 140.240510989824 8.90487275341039E-05 -103.975729589585 0.00129071885359615 -179.764934166569 
                               8.56516172616208E-05 -2.75206689596077 2.07212081901359E-06 163.066417025975 1.3157111343507E-10 10.6259592013333 4.74523989890373E-11 -69.3352726687978 
                               6.82892596406127E-06 119.439296125141 2.17736418202897E-10 95.6057172176383 4.5855909810063E-10 -134.341207248345 0.000117158644023679 29.7399512906305 
                               2.11698322486145E-09 26.4684876448234 3.81192669449329E-09 -61.697550622495 0.000142700424849731 92.2478178856946 8.56447816055987E-05 -2.75227375693472 
                               0.00107689371036574 179.88917134323  3.05934097067861E-06 -41.4220239456393 1.99186481022365E-10 164.54403722058  6.70506638444924E-11 78.186871370793  
                               0.906326074973913 30.0807948006667 2.89417352823762E-05 7.05377944140853 6.05660602070865E-05 136.974954699178 0.0528061718700066 117.461809932189 
                               9.69084089907785E-07 113.880726930337 1.65017747328464E-06 22.9118501602705 0.0237091218786727 138.835608176879 2.0906477823722E-06 163.611582463922 
                               3.04499271675544E-06 -41.8442789630028 0.131615688615764 -60.8399662446715 6.67973907904526E-05 70.6282140334595 2.10284092251524E-05 137.575190603894 
                               5.99193021523464E-05 -123.431504834413 1.88540909333867E-09 -145.787554775214 4.02880497379827E-09 -16.3603320423314 3.49332937824496E-06 -35.9741497085287 
                               6.39186710073704E-11 -40.5387709453971 1.00104612398181E-10 -122.700761902846 1.56808009127597E-06 -14.5100702798131 1.46248177700825E-10 8.0549615898147  
                               2.00453152533843E-10 164.20326860521  6.70443297315604E-05 70.9730383576866 0.00169426393572515 179.920067897512 0.000316474425911768 0.640004086008346 
                               2.01850169284671E-05 153.671960276704 6.373188796152E-10 130.468842444428 1.34446158808155E-09 -96.3260455078635 1.1766757859219E-06 -118.944023135993 
                               2.35233034512397E-11 -131.353474991453 2.92665081279809E-11 139.500022047324 5.28729043684354E-07 -97.5449314073424 4.17479213810964E-11 -88.5010768266082 
                               6.90588334396222E-11 61.4032352678244 2.15218407726216E-05 138.655088390152 0.000316466021641573 0.639801992786413 0.00135946665407171 -179.661896765558 
! Gamma         2.0591438962576  3475.9131472499  5253.01432650432 4.18728494056827 5254.2333729093  2.76531499630506 2.05914359671452 3475.91718204289 5252.89369346812 4.18775648330605 5254.18626424582 2.76498414929861 2.05916461663434 3475.91098740593 5252.79995337969 4.18256329015525 5254.3471910828  2.77061594266836 2.0590968694436  3475.91426873847 5252.74272071161 4.18717846453111 5254.04662151147 2.76397448981927 
! Port Impedance         336.134732392399 0.234287874590253 44.3740216782378 819.640341758887 3.03549085882802 217.851013150436 336.197543357425 0.234662468997488 37.1656620674152 893.519262679174 2.49848769770971 223.28960379798  336.157167417325 0.234346442178752 62.5877915469433 831.198270988421 4.20593234386422 218.885243117928 336.174307160456 0.234351709846423 29.3008835379031 827.047148590809 2.0298223975372  218.951340549761 
240.666666666667               0.177670910776635 -110.651171094956 3.30695555023818E-05 -73.5377532160271 5.51913665686354E-05 159.836776669926 0.0249725933877429 -58.9048307114002 
                               4.62517041871193E-07 -64.0532311829703 8.33129117545113E-07 -152.553852403939 0.0792074859043717 -108.213552404821 7.28224372904412E-06 -82.6902296726662 
                               1.02340680220225E-05 70.397379425433  0.898651297446425 -19.0561417246613 5.96577565763713E-05 -171.665417097923 1.88086452895561E-05 109.303773221326 
                               3.30409101704011E-05 -73.3478343259467 0.000924929324599155 -179.648590299108 9.98729301081203E-05 0.435294457339959 8.11410314598933E-07 -81.5429200712266 
                               1.50427854994136E-11 -73.8683176477404 3.30969092524996E-11 178.926804136811 2.57179300378476E-06 -130.869558021735 2.31181794572148E-10 -104.937655422239 
                               3.3224832245687E-10 48.4218085461956 2.92194535285919E-05 -41.8390550926538 2.03429910381878E-09 165.08075701863  7.24603382149548E-10 89.3965099662269 
                               5.51826386782727E-05 159.779515952291 9.98740768292581E-05 0.435495971695591 0.00095173516584652 179.815925009487 1.67910886387602E-06 47.9110868916663 
                               3.30468415405949E-11 38.2722608151299 4.94388417847046E-11 -45.7137717085071 5.32674730795667E-06 -1.37110502494431 4.96166411218856E-10 23.9464236187892 
                               6.9294575633274E-10 176.93761941911  6.0481197362392E-05 87.7624565607559 3.93636520799176E-09 -64.9910571051918 1.17781953613342E-09 -148.051676747997 
                               0.0249734455077413 -58.8913136841142 8.25525692977074E-07 -81.3143643710587 1.66836925170891E-06 47.8513086991052 0.175901939724533 -110.072692965106 
                               2.15799558872395E-05 -89.0552967208894 2.73882370105141E-05 11.1703064051511 0.899047786548721 160.921689868739 8.2742600137771E-05 -173.555299675322 
                               0.000116115375016957 -20.4846130206065 0.0791662451379929 70.1571381915034 5.26302311302182E-06 -82.5306287606429 1.67092855843925E-06 -161.566409134027 
                               4.84530894976964E-07 -63.845932817953 1.48815378777812E-11 -74.3951522518529 3.32622410796048E-11 38.5148754931591 2.17219436011081E-05 -89.3948335043468 
                               0.00110633217051121 -179.864096985395 3.80734311988245E-05 -179.661808244274 1.74047920991846E-05 155.683630745745 1.652202546446E-09 -179.665219465196 
                               2.18794459976087E-09 -26.864668140308 1.52547972262757E-06 65.1120866727993 9.36261970679284E-11 -83.2819010047479 2.12771507331484E-11 -159.56898726191 
                               8.07051670409942E-07 -154.614717082342 3.34532016325975E-11 178.928715978411 4.93023114700307E-11 -45.920837606421 2.741767229697E-05 11.6180578371399 
                               3.80488585925381E-05 -179.66037918263 0.00113871028489347 179.987294348515 2.90735853978023E-05 65.5161372242405 2.59794550129268E-09 90.3729672813063 
                               3.77579222851357E-09 -113.474299356953 2.56592373967744E-06 -25.207984017934 1.90532484977352E-10 -177.61851864006 7.62539495745425E-11 111.45495668173  
                               0.0791995251463133 -108.209566230477 2.57590688633699E-06 -131.16904888555 5.33058423476384E-06 -1.26456943559993 0.899045331334085 160.921634502096 
                               1.71482320719425E-05 155.883458144147 2.93951023465621E-05 66.0897435678068 0.176176007011422 -109.866150123235 0.0001025054925573 -105.26811966656 
                               0.000148043185911021 85.3879077084031 0.0214664686600326 113.51116005073  1.42527055259471E-06 -38.6705100492188 4.4450044828911E-07 -116.358342806668 
                               7.26467443492759E-06 -82.680015904769 2.31283924643216E-10 -104.935552880855 4.95692801258234E-10 24.002294097925  8.25511742741066E-05 -173.622683259387 
                               1.65088496563365E-09 -179.677231532349 2.60084830404132E-09 90.5696490733185 0.000102348409147282 -105.222218827765 0.00129262338886543 -179.612842599782 
                               8.14042836481412E-05 -6.57078584555075 1.96891842710783E-06 139.011933166422 1.33151581812037E-10 -14.8848957919701 4.45851010987654E-11 -93.1453632993137 
                               1.02348329967527E-05 70.4588417109093 3.31975738953963E-10 48.4973950284843 6.93092078509556E-10 176.956376847339 0.000116116860633298 -20.3723220018053 
                               2.18283468966651E-09 -26.6283615343599 3.77764568120234E-09 -113.442892288631 0.000147845674369926 85.2652401108755 8.13979044906297E-05 -6.57099645474294 
                               0.0010694849860279 179.703794578702 2.77726389013569E-06 -67.8226414921889 1.82466280082517E-10 139.934797050786 5.72063198246499E-11 61.948596628514  
                               0.898649956814634 -19.0560250748128 2.93031825650756E-05 -41.8654144733284 6.03903331558577E-05 87.8148013306449 0.0791747727025044 70.1483973942812 
                               1.52175677888928E-06 65.1433048938397 2.57524399616413E-06 -25.0167722251127 0.0214680649465554 113.496997883734 1.97271356476685E-06 138.886128286071 
                               2.76355588448195E-06 -67.8895624351415 0.178026790606124 -109.274293682952 7.60024075390514E-05 68.0006840759019 1.91117107734772E-05 133.927596388338 
                               5.98337556129722E-05 -172.263038335463 2.0286540238581E-09 165.083334000893 3.94431086221425E-09 -65.0795071639652 5.25561351677461E-06 -83.090583656772 
                               9.45204643546971E-11 -82.8459827344145 1.88867705437624E-10 -177.890350893279 1.42367835959585E-06 -39.7634364525731 1.33056238621826E-10 -14.8292414327879 
                               1.82474942838342E-10 139.742915198697 7.62490442211597E-05 68.2642379148517 0.00169774347015338 -179.874628099952 0.00031272477196011 0.0540010962685505 
                               1.96144675096377E-05 107.428624253111 7.37521916736519E-10 89.4497887664571 1.1776760984564E-09 -147.999790295373 1.71966531411775E-06 -163.786760081519 
                               2.04333774884668E-11 -155.3613078293  7.80010904453885E-11 111.095329604549 4.65618063843933E-07 -120.529475000107 4.4960288007751E-11 -93.1850876525962 
                               5.72774768751412E-11 61.8254565943784 1.97328575872535E-05 134.846296090783 0.000312717939380969 0.0540002439105332 0.0013468879157123 -179.917825647262 
! Gamma         2.05188773307822 3496.10667907997 5239.60276451322 4.19468435879442 5240.8204588183  2.77354706228884 2.05188741271869 3496.11069052138 5239.48182393377 4.19516020009361 5240.77322877728 2.77321243067889 2.0519082973162  3496.10453168595 5239.38782424634 4.18994089949079 5240.93458525752 2.77887308983335 2.05184071915828 3496.10779381911 5239.33046571508 4.19458190540122 5240.63322899988 2.77219860978955 
! Port Impedance         335.121011523287 0.232235352841904 58.2207766901378 807.33448010335  4.00990452788102 217.939655898076 335.183633355372 0.232607540074381 31.4578744024853 817.071164648717 2.19688846208253 219.001146532347 335.14337946176  0.232293431125825 116.678254059199 757.415276766642 8.28738487268917 215.032613729864 335.160487085676 0.232297789497516 -1.07660089038749 863.77748576203  0.0231720201262164 222.186250858836 
241.333333333333               0.209981891331484 -157.870007100581 2.8347831859805E-05 -77.0556139378455 5.58666027567332E-05 170.631833488615 0.0316098828678143 -105.324503415518 
                               5.99470654096768E-07 -110.236782867872 1.05998226296889E-06 160.724979458032 0.0962872827303296 -155.443023191259 8.90417758805911E-06 -129.575586071262 
                               1.25209029071332E-05 23.3511994407965 0.891043297385553 -67.2590905595029 5.96082307427014E-05 140.304067169742 1.85487944971276E-05 61.8772115055992 
                               2.83664498771806E-05 -76.8384020614908 0.000922640593164847 -179.647369503947 9.98250995102422E-05 0.436077754964147 1.03131589456024E-06 -127.607921640159 
                               2.08252928690577E-11 -121.409255318387 4.0001588074875E-11 129.766804291764 3.14016387556058E-06 -177.725897143191 2.84725007106661E-10 -151.551567424645 
                               4.08460042388945E-10 1.81564154807021 2.90627048670274E-05 -89.5443982342081 2.0417507060056E-09 117.471700621474 7.19414410959589E-10 42.3427205711233 
                               5.58829928366041E-05 170.613964268148 9.98262532592465E-05 0.436280405755833 0.00094945198470925 179.814627007388 2.14024698770744E-06 1.64336236267755 
                               4.17433391595537E-11 -8.37535834401383 6.51645934984341E-11 -89.7653424283032 6.52018020330532E-06 -48.4635291366549 6.09703581077514E-10 -22.7771536552568 
                               8.53606125245146E-10 129.996823393777 6.03368824698115E-05 39.7178056078151 3.96125923856178E-09 -112.919451101076 1.16957602025611E-09 164.56365775504  
                               0.0316113355909846 -105.3127294497  1.04559845757306E-06 -127.666706526257 2.12999460934763E-06 1.69375099233116 0.207684179677694 -157.36001210829 
                               2.01041667007028E-05 -95.825103292317 3.16838388582132E-05 16.8103319194743 0.891655118050899 112.754009660276 8.25187383557866E-05 138.621335916504 
                               0.000115914576874307 -68.4629664176465 0.0963381806474108 23.459006423581  6.4498807598665E-06 -129.031608124541 2.01746401268868E-06 152.503864884513 
                               6.20042078541968E-07 -110.449740894409 2.05684112711356E-11 -121.777674744109 4.21056035845541E-11 -8.10452641476266 2.021125474525E-05 -96.1111839653088 
                               0.00110338834747327 -179.863507134298 3.8499650558344E-05 -179.648810517963 1.74850208443849E-05 107.445162832277 1.66925797096159E-09 132.513808923423 
                               2.21396963829821E-09 -75.0072031570036 1.88935833332151E-06 18.1528513622936 1.15501245616478E-10 -130.450982872273 2.62474776362952E-11 152.976351242191 
                               1.030697557385E-06 159.492128281921 4.03916314969846E-11 129.699618660566 6.49267940787517E-11 -90.0593447579553 3.16579757879534E-05 17.1838613256425 
                               3.84750518427148E-05 -179.647399413079 0.00113682248799791 179.986617722857 2.90914338072561E-05 17.7182721404207 2.61579879602338E-09 42.873811185618  
                               3.79771040438772E-09 -161.02924655271 3.14347671850845E-06 -71.5837529359051 2.35102567675775E-10 136.810425808486 9.20269570219191E-11 66.1909593007531 
                               0.0962795470564792 -155.437773350851 3.14724584697643E-06 -177.958022331431 6.52247245046717E-06 -48.3876610697648 0.891652405420793 112.753847311316 
                               1.72194724540706E-05 107.605138286679 2.94142249347696E-05 18.3247537219305 0.208109528745434 -157.412373850599 0.000106084846890803 -113.315138165186 
                               0.000140134733518318 77.9362506570501 0.02838905055118 69.9050400214474 1.89868001922792E-06 -82.114263761788 5.85612825533312E-07 -159.408706156995 
                               8.87981014832544E-06 -129.565117388999 2.84829680381511E-10 -151.546804491566 6.09207604874243E-10 -22.723005397401 8.23246447599097E-05 138.553267319533 
                               1.66799167622652E-09 132.503264317011 2.61843379668403E-09 43.0723666322725 0.000105889577799685 -113.26240400639 0.00129052196081195 -179.611924945198 
                               8.13356732483475E-05 -6.63540348922876 2.62209383979306E-06 95.7307100423145 1.7830000815872E-10 -57.8400354134174 5.88214609152557E-11 -136.018084795542 
                               1.25247475352607E-05 23.4308013244186 4.08154061297757E-10 1.90349607007851 8.53800488035604E-10 130.013485389304 0.000115923715953202 -68.3460901261851 
                               2.20851867335092E-09 -74.7859519197659 3.79933396669757E-09 -160.989329215926 0.000139999760103745 77.7829272555991 8.13293183769557E-05 -6.63562767098093 
                               0.00106606092934893 179.7020496527   3.68983931071377E-06 -111.195593792221 2.44652283667673E-10 96.6852050407165 7.59084843916224E-11 19.0070658520848 
                               0.891051914925169 -67.2528010308187 2.91856773015611E-05 -89.6840089119894 6.0292051399335E-05 39.7533294754537 0.0963380867800845 23.4585780491273 
                               1.87094657208109E-06 18.3331902768781 3.16596177422965E-06 -71.2097685085987 0.0283894642251491 69.9047693638865 2.62504638819978E-06 95.6568742872876 
                               3.68038072239851E-06 -111.277456928252 0.210276106499256 -156.936067339095 8.03533495828649E-05 60.5917574939872 1.65612701922861E-05 139.970049640787 
                               5.97957069913973E-05 139.700011300106 2.03605058625936E-09 117.471870731676 3.96937325882372E-09 -113.005555747417 6.4447384553207E-06 -129.627610194719 
                               1.16562704878117E-10 -129.980719702563 2.3312404590931E-10 136.493432622346 1.8974409819986E-06 -83.200137068895 1.78181148374447E-10 -57.7902610607861 
                               2.44708363244992E-10 96.4884175231157 8.02516830241929E-05 60.8280203262303 0.001695239171433 -179.874778928863 0.000312309076498699 0.0533286489563901 
                               1.93706203450402E-05 59.9425003716363 7.32366089121541E-10 42.3937167731685 1.1694587641944E-09 164.618724270497 2.083818614954E-06 150.198369164268 
                               2.5135071016091E-11 156.888874913951 9.41413907400211E-11 65.853073782235  6.13071033163322E-07 -163.453708802803 5.93058994401454E-11 -136.085864689301 
                               7.59835442096534E-11 18.8944413902065 1.70778738494266E-05 142.01260906981  0.000312302284562039 0.0533276198206606 0.00134031480923876 -179.917515638602 
! Gamma         2.04476180440811 3516.23977415652 5226.11940570177 4.20220363140055 5227.33576587484 2.78187557434884 2.04476146303224 3516.24376258312 5225.99815434293 4.20268381725595 5227.28841317491 2.78153712494788 2.0447822149947  3516.23763903288 5225.90389234889 4.19743815208982 5227.45020380214 2.78722692831174 2.04471480201818 3516.24088224252 5225.84640660752 4.20210524409734 5227.14805259604 2.78051910351596 
! Port Impedance         334.124674107533 0.230239964769505 58.7180821680973 811.425758285515 4.04488406764348 219.091652420823 334.18711005759  0.230609782226714 31.7294239041411 821.33830260465  2.21600415548495 220.166817469621 334.146976109906 0.230297561181981 117.548962710563 761.073608782089 8.35207345404226 216.157978365338 334.164052005546 0.230301016541312 -1.08505484846639 868.404013624014 0.0233787317261444 223.376164044048 
242                            0.232677947423987 155.526826774604 2.36315593174245E-05 -70.5203833061653 6.66350564822648E-05 175.990822838893 0.0361735627416082 -154.964558112619 
                               6.92456869902155E-07 -160.353269890503 1.22013684119625E-06 112.011257164617 0.104534976251868 159.001640395283 9.72564395830978E-06 -174.794381632312 
                               1.36821958328381E-05 -22.0124490468272 0.884430999094004 -114.369502750081 5.96063138044936E-05 93.3673776695474 1.83032968254801E-05 15.5448340899793 
                               2.36547463957571E-05 -70.6041608831852 0.000920355494912718 -179.646135604334 9.97773496047412E-05 0.43699153641374 1.18442940806425E-06 -176.873199819363 
                               2.36663916682701E-11 -172.468643188654 4.54429462246214E-11 83.5598309883412 3.42470580782497E-06 137.095003473152 3.13468850113283E-10 163.375248575464 
                               4.48990034243594E-10 -43.1247593516889 2.89754821938314E-05 -136.302304887099 2.05214756609387E-09 70.9994325504859 7.14562225816171E-10 -3.49160262035671 
                               6.66481031096832E-05 175.946951141218 9.97785166125077E-05 0.437193317196723 0.000947172762711409 179.813356948703 2.4678986214433E-06 -47.8648626188177 
                               4.85558549210587E-11 -57.3364090340338 7.70896262958983E-11 -139.620504796405 7.12715408087682E-06 -93.8926715900161 6.68629360168623E-10 -67.7931495839823 
                               9.38588470963974E-10 84.7289350493352 6.03102880851854E-05 -7.25775116178951 3.98932424073288E-09 -159.79017273504 1.16336448556542E-09 118.228650161149 
                               0.0361728007902317 -154.962591673763 1.20099589797489E-06 -176.619887878598 2.45665488544851E-06 -47.9283673513136 0.227249700338774 156.796417398109 
                               1.70074314455941E-05 -97.0969305053344 3.73504526637716E-05 14.1094377292051 0.886091649656582 65.5250049781729 8.24548466760446E-05 91.7327868845914 
                               0.000115942805933092 -115.500629054161 0.104938726784032 -24.1138059203146 7.0701693086853E-06 -176.545265255699 2.18788701101036E-06 105.413098922477 
                               7.18209378432364E-07 -160.36263093829 2.34030797053202E-11 -172.801267805633 4.89864893560913E-11 -57.1246312800526 1.71004548509095E-05 -97.352941573172 
                               0.00110044549146113 -179.862908070333 3.89318425802106E-05 -179.635740358546 1.75960103641073E-05 60.1527495196272 1.69018502313507E-09 85.6735321322629 
                               2.24310498074522E-09 -122.176734835995 2.08406027949504E-06 -29.4742718527285 1.29921748275192E-10 -178.671560550282 2.97192708042757E-11 106.291514841286 
                               1.18915402875484E-06 110.430836498979 4.58758404232322E-11 83.5281137198852 7.67532491857632E-11 -139.895537129307 3.72728195085121E-05 14.4720763365759 
                               3.8906844672597E-05 -179.634327267406 0.00113494701489282 179.985926423412 2.91648524701349E-05 -29.1450861865527 2.63871180081439E-09 -3.7552448178073 
                               3.82982926854519E-09 152.352335402588 3.45288523996987E-06 -118.81252153926 2.55548823740164E-10 89.4894104311123 9.99962122742798E-11 18.4060818909672 
                               0.104535672620582 159.001438232816 3.43877536269689E-06 136.938864819161 7.12493927120467E-06 -93.8419221488396 0.886101359259508 65.5248465989644 
                               1.73147442626058E-05 60.2975800535934 2.95077737639122E-05 -28.4975357670189 0.22796678830207 155.493572489109 9.81738235747136E-05 -121.315707483702 
                               0.000119378153286447 74.7061353928438 0.0340598787976066 22.4526479512725 2.29225294211044E-06 -129.257125757488 6.93184174565247E-07 153.9232507455   
                               9.70221299433342E-06 -174.845103513666 3.13565911913686E-10 163.382100108684 6.68191750641736E-10 -67.7417664919613 8.22255971682238E-05 91.6797924316271 
                               1.68897628402626E-09 85.6670159050426 2.64136576668001E-09 -3.55413808923654 9.79771414281465E-05 -121.257236935361 0.00128842459769294 -179.611065424995 
                               8.12646909117607E-05 -6.70196435243276 3.16153303366536E-06 48.6350860472905 2.17724977360327E-10 -104.558235172442 7.02000078809155E-11 178.115444292944 
                               1.36823588759004E-05 -21.908501256866 4.48789782483489E-10 -43.0271029437644 9.38757971309567E-10 84.7417443746214 0.000115977981826425 -115.383229746116 
                               2.23711300055916E-09 -121.962220680677 3.83152811305867E-09 152.398930125944 0.000119242403446285 74.5039538397517 8.12582356346162E-05 -6.70218975574337 
                               0.0010626335932471 179.700222130092 4.45799257530366E-06 -158.454954883185 2.97381714793929E-10 49.7002869664871 9.04440566722286E-11 -27.5187442311313 
                               0.884427595141737 -114.369390719519 2.91111236714025E-05 -136.417745247063 6.02436744635744E-05 -7.22898058103307 0.104937624318066 -24.1147351770776 
                               2.06876698889772E-06 -29.5875932804006 3.45705882551077E-06 -118.332511349575 0.0340583262470613 22.4557147807515 3.17313646476943E-06 48.5236033747181 
                               4.44772941368171E-06 -158.527093639617 0.232400376784639 157.11703630306  7.65835483199156E-05 52.5793907742055 1.70328998093168E-05 151.029520026608 
                               5.96630375888012E-05 92.6908799925745 2.04636451284975E-09 70.9918517630944 3.99772542724189E-09 -159.873121398381 7.08077133998614E-06 -177.064772813288 