! Touchstone file exported from HFSS 2021.1.0
!        File:           D:/ANSYS/HFSS_work/cp_ant/260204_Cir_to_Rect_STEP_v3_fin.aedt
!        Generated:      8:40:42 %xC624%xD6C4  4 22, 2026
!        Design:         cir_to_rect_OMT_v13_GA7_opt_STEP_exp_QN2_S_CW_S_180deg
!        Project:        260204_Cir_to_Rect_STEP_v3_fin
!        Setup:          Setup1
!        Solution:       Sweep
!
! Variables:
!        diff_ws = 0.0610877997211628mm
!        fil_r = 100um
!        h1 = 0.291824400557674mm
!        h2 = 0.134mm
!        h3 = 0.176mm
!        l1 = 0.527mm
!        l2 = 0.275mm
!        l3 = 0.459mm
!        l4 = 0.313mm
!        l5 = 0.285999999999997mm
!        mov_x = 1mm
!        r_r = 6mm
!        sep_h1 = 0.775824400557674mm
!        sep_h2 = 0.484mm
!        sep_h3 = 0.35mm
!        sep_h4 = 0.174mm
!        sep_l = 1.373mm
!        sep_l1 = 1.9mm
!        sep_l2 = 2.175mm
!        sep_l3 = 2.634mm
!        sep_l4 = 2.947mm
!        sep_ll = 0.2004mm
!        sep_ll2 = 0.2505mm
!        sep_ll3 = 1mm
!        sep_w = 0.137mm
!        tr_l = 1.002mm
!        wc_d = 0.9906mm
!        wc_l = 3.8259mm
!        wg_x = 20mm
!        wr_l = 3.7156mm
!        ws_x = 0.8636mm
!        ws_x1 = 0.898mm
!        ws_x2 = 0.775824400557674mm
!        ws_x3 = 0.898mm
!        ws_y2 = 0.898mm
!        ws_z = 0
!        wsc_l = 2mm
!
!Data is not renormalized
# GHz S MA
! Terminal data exported
! Port[1] = rec1:1
! Port[2] = rec1:2
! Port[3] = rec1:3
! Port[4] = rec2:1
! Port[5] = rec2:2
! Port[6] = rec2:3
! Port[7] = rec3:1
! Port[8] = rec3:2
! Port[9] = rec3:3
! Port[10] = rec4:1
! Port[11] = rec4:2
! Port[12] = rec4:3
240                            0.219056019678712 -68.4654071606867 4.39045499996648E-05 -93.8046365032709 4.79443566832546E-05 -98.1173645340685 0.0815744980809404 87.3453024460277 
                               2.44611015625882E-06 11.9979674732421 1.52281296989853E-05 35.1312538649237 0.144778614099558 109.404892174669 4.05764854325575E-06 159.672201371465 
                               1.25102638257683E-05 130.266172884839 0.877593313916875 -155.25434800476 5.38332105832619E-05 -40.873360902643 9.07460401286057E-05 -179.810615669863 
                               4.35221489822311E-05 -93.7770572701286 0.00113326453167438 -179.929292964842 7.16162843811417E-05 -0.397493725577305 3.04422300886598E-06 99.1076225859546 
                               1.01630331634359E-10 18.7486044913514 5.52885392130622E-10 48.9442038598939 5.40476788110796E-06 121.075410531052 1.31098689474799E-10 172.595610416195 
                               4.40665467280595E-10 141.523336954821 3.27449108669401E-05 -143.559827853987 2.19148573371926E-09 -27.5678011119455 3.77147874613861E-09 -170.436316594759 
                               4.8275457715682E-05 -98.2927536382337 7.16219328369694E-05 -0.397588846273861 0.00149766820619026 -179.943075764594 3.46636040493257E-06 104.988936160558 
                               1.02801318712731E-10 26.8329253180681 6.20325386890427E-10 56.019922904091  6.14920985657434E-06 127.134732388913 1.56027841099554E-10 178.376834951693 
                               5.35124897962946E-10 148.743714872406 3.72993070871905E-05 -137.547893159633 2.32545976212166E-09 -22.6990161187041 4.04836214175149E-09 -163.55138764322 
                               0.0815747118927844 87.3453704207209 3.07197540985702E-06 98.1600684725491 3.43347799101535E-06 104.487312889526 0.218719252420252 -69.2703302514739 
                               2.53863534739664E-05 -27.7391635264809 0.000195273944884587 -49.4998897477477 0.877406656117991 24.7305907088208 2.46151169877811E-05 75.5736103794002 
                               7.54304938167765E-05 45.6659102446987 0.146674010364454 -76.6467210989143 9.01126410747026E-06 37.6619554698331 1.51100417342849E-05 -101.175250909413 
                               2.43921607511478E-06 10.9846776030712 9.39174126897352E-11 22.2048757945934 9.86006762396744E-11 29.2191885737071 2.56373956898225E-05 -27.3786755493166 
                               0.00136951333519971 -179.908347882425 7.01575207342551E-05 179.086432652521 2.63246653755715E-05 -51.6145712228036 5.68751153085442E-10 -0.516136506842106 
                               2.32753859910216E-09 -28.999073169626 4.40636939749551E-06 -152.914343369595 1.99678596694343E-10 -50.7263210966005 3.56305806839997E-10 -174.600412904443 
                               1.5257662235924E-05 34.7997626695359 5.57790971233791E-10 48.2225568423531 6.19836612376872E-10 54.6226094652379 0.000195351208630056 -49.4901831367903 
                               7.01544577785125E-05 179.086461309068 0.00173645777401542 -179.935006852454 0.00016417577020917 -27.8550601071373 4.38209580219685E-09 24.0687103998602 
                               1.47717124288614E-08 -6.70054624874084 2.74476331895063E-05 -129.209273279791 1.56887769883226E-09 -16.0955129151494 2.70323604166883E-09 -152.703297063819 
                               0.144778604245929 109.404560709984 5.42143051088535E-06 121.365862124753 6.0940471141059E-06 126.931620075354 0.877410978960284 24.7307080715445 
                               2.60899548595186E-05 -51.2395022965001 0.000164097866283248 -27.8601915774764 0.220646762234788 -69.3290593641853 2.48796470618728E-05 -124.882534329362 
                               9.58498108222314E-05 -101.190107677607 0.0799725513506715 -91.0120085260523 4.91926447344266E-06 22.9803318898119 8.29651157336764E-06 -116.09211897761 
                               4.12388405914153E-06 159.76858967784  1.4893916351004E-10 171.270831356447 1.65695148356041E-10 176.88910232354  2.50009697497339E-05 75.0315025237701 
                               5.6296212714778E-10 -0.954905111924925 4.39799819688309E-09 23.9055540908345 2.53814392702284E-05 -124.483491913589 0.00137406762641728 -179.894567333448 
                               2.52893943405956E-05 -6.07376878365845 2.27467963049252E-06 -40.7966048609913 1.50103920060768E-10 81.3626025939075 2.68762609903866E-10 -59.3069394453746 
                               1.25473695110208E-05 130.6708779623   4.68018968888075E-10 142.753158638646 5.37722577735434E-10 148.737579211884 7.60903955972596E-05 45.97671517338   
                               2.30570538171473E-09 -28.9697784419638 1.47529148281496E-08 -6.42936637346059 9.64477985152863E-05 -101.472780388276 2.52719378139541E-05 -6.08303650500593 
                               0.00163590413308865 -179.926291401376 6.93094810717087E-06 -69.8207896474238 3.70639104318582E-10 58.5475892468011 7.44639794281244E-10 -83.8758033411126 
                               0.877584771839501 -155.254401797137 3.30846923296429E-05 -143.624314662354 3.70051782792792E-05 -137.825334076655 0.146672812680543 -76.6470564956696 
                               4.31194845970702E-06 -152.703428021839 2.74193855952179E-05 -129.013120340222 0.0799710418029123 -91.0124864103668 2.25974056191539E-06 -39.4953601426257 
                               6.92733731310994E-06 -69.6407662991512 0.21885552456201 -70.17507082348  5.79137105102905E-05 143.108045500648 0.000122983784875228 -70.9038027667087 
                               5.36465672821171E-05 -40.8883576296787 2.21768502646967E-09 -27.4976767437447 2.32726418295055E-09 -22.8865005469714 8.95778877047984E-06 37.645361103425  
                               1.97884602419887E-10 -49.9779733683904 1.56332182077676E-09 -15.8731876044533 4.90035126140585E-06 23.3042015321777 1.48339858862584E-10 81.865742542781  
                               3.78156337135974E-10 55.3583733226149 5.77343998499604E-05 143.10975001391  0.00149931662255523 -179.880937951056 9.60513829490092E-05 -0.29369613497823 
                               8.98554653654409E-05 -179.396012894532 3.86406463986868E-09 -170.506797138794 3.95488376899741E-09 -163.266334314465 1.50099704756291E-05 -100.782243279627 
                               3.40373095278781E-10 -172.600385883793 2.69555759389008E-09 -152.127519176478 8.19425478001374E-06 -115.15449425598 2.83083590450655E-10 -54.8299190889811 
                               7.44486585303496E-10 -84.2751619136804 0.000122071540882199 -71.1442292256903 9.6291458915165E-05 -0.29259944153461 0.00213595432884862 -179.968482894855 
! Gamma         2.05912969561928 3475.9083404117  5252.82841230327 4.18702694762065 5254.3342892228  2.76493297649426 2.05915180717724 3475.9149731419  5252.85700321311 4.18764246996793 5254.26867230631 2.76528419068697 2.05915578350343 3475.91206693694 5252.7863136765  4.18786719194281 5254.29536998867 2.76500985934066 2.05910569834749 3475.91339674284 5252.67450040844 4.18709620363242 5254.11941449994 2.76408172778629 
! Port Impedance         336.119728589582 0.234306495987135 -5.94678422508315 834.896303977472 -0.299787974603897 218.911434437091 336.163067391003 0.234555756830239 -8.7271946785091 872.270708799573 -0.611195938318847 221.388372517517 336.187548249915 0.23456062176746 34.2243159172871 810.718650396792 2.38005851213306 217.538938211011 336.172308784936 0.234409884920312 2.90540359542733 872.934245381007 0.246763326078844 221.70955426507  
240.666666666667               0.259977146311862 -118.521275138608 4.66507948944121E-05 -103.592913008908 5.43882936874111E-05 -105.320789153237 0.0922924932185126 28.6817074952274 
                               2.94850028724592E-06 -40.6930345470836 1.73019171996339E-05 -23.9219498127093 0.170526861589612 59.3974733635437 4.63088062159498E-06 109.415499371628 
                               1.48827376135801E-05 81.5510590413383 0.860421212517995 155.578039530026 5.24101096206239E-05 -88.9843432463593 8.86402113654797E-05 132.524399237106 
                               4.6334830876606E-05 -103.677269495468 0.00113202889789538 -179.804654521122 7.75394302010477E-05 3.90512899812869 3.40708785387526E-06 39.505118635137  
                               9.19153403847616E-11 -33.9291760497797 6.17190035010116E-10 -11.8766818739061 6.29618899704552E-06 70.2195918401996 1.83072043326284E-10 113.855222144836 
                               6.62644042962746E-10 90.5980627174116 3.17593174405127E-05 166.412517776352 2.27402013581327E-09 -73.7617341546865 3.93483415892595E-09 142.38517662129  
                               5.47385162570658E-05 -105.449580411186 7.7544621058688E-05 3.9047366039343  0.0014928404552748 179.962581083575 4.019137639885E-06 47.2210044956664 
                               1.04506719575783E-10 -26.4291923039662 7.15866064206738E-10 -4.21317217084031 7.42657537362371E-06 77.9465287320937 2.09262170570336E-10 121.252851094546 
                               7.6840685681198E-10 98.8143284947476 3.74668697497548E-05 174.131241078969 2.62933978621108E-09 -65.4087379102031 4.56260000182786E-09 151.157302397936 
                               0.0922918886627148 28.6821017723946 3.44132086402034E-06 39.286214705785  4.00026492263102E-06 46.939635423808  0.258341300053104 -119.217723422225 
                               2.50758966537351E-05 -15.0121398684099 0.000158704390519307 -50.590431187633 0.860559938403887 -24.3841086820868 2.3306107900971E-05 25.7957522696799 
                               7.48015528048696E-05 -2.33217476644945 0.172610758192091 -126.183265746511 1.05508724723226E-05 -10.8734345125234 1.78171076563526E-05 -149.448236157314 
                               2.93525703237488E-06 -39.9995753367187 9.66744157869151E-11 -34.58981827243  1.09292625750076E-10 -26.5573076317882 2.51177275381496E-05 -15.3806102050827 
                               0.0013666317464478 -179.807497304066 7.59780315568219E-05 -176.424339179378 2.73752288670432E-05 -93.0254096481304 7.12067740404841E-10 -53.0892211071435 
                               2.97989936320891E-09 -76.9524971651131 5.4890077100309E-06 165.161306973709 4.48992053805279E-10 -78.2800846955832 7.49822389146543E-10 136.085009929194 
                               1.73173000483294E-05 -23.7793812131242 6.20991996276841E-10 -12.2634475535942 7.21062675643623E-10 -4.50459773088193 0.000158335068027646 -50.6317102704713 
                               7.59739566632134E-05 -176.424595262248 0.00173024902623737 179.984968668384 0.000161494123298882 -76.8466148085605 4.17972595921292E-09 -28.5142260852648 
                               1.46195945341443E-08 -58.7707930648361 3.23911059102061E-05 -178.641489445329 2.12291698209338E-09 -66.1939837970569 3.47222890220836E-09 153.508779274719 
                               0.170527307961738 59.397832218274  6.35963891609708E-06 69.9706854950068 7.39636098491638E-06 77.6210975293039 0.860566370612849 -24.3841654630642 
                               2.75848736696488E-05 -93.7472698858203 0.000161498428480835 -76.9811000723676 0.261089582815284 -118.529973741179 3.02070835788247E-05 -128.101135287306 
                               0.000109237635140736 -108.189688316209 0.0894210690011948 -148.496771408471 5.46872449641295E-06 -32.7053866793032 9.27270607852406E-06 -171.366865022159 
                               4.64668800523228E-06 108.807245048745 1.84437685932886E-10 114.832469797138 2.09139452725289E-10 121.899192884733 2.34475633769515E-05 25.0142344225189 
                               7.0348810919508E-10 -54.3667872314933 4.15441629660238E-09 -28.6183358244055 3.05917884400895E-05 -127.719879200831 0.00136947854427808 -179.865480127174 
                               2.84182678806443E-05 1.65290659910275 2.43649257584875E-06 -99.087341886501 1.51902773387248E-10 32.671987073144  2.91087932452479E-10 -108.554720641105 
                               1.49206177716811E-05 81.0995183055199 6.3305305765696E-10 91.6678553775726 7.32590042006978E-10 99.4545593483061 7.52897033902094E-05 -2.69323785893418 
                               2.89711044496492E-09 -75.6109468626448 1.45320702196859E-08 -58.2816686978586 0.000109770771078361 -108.655660609544 2.84044568540598E-05 1.65230627542292 
                               0.00163142464352458 -179.950597265702 7.82467750257172E-06 -126.788183769174 3.32290914619294E-10 -6.7082662252455 6.41323104521176E-10 -134.454835988103 
                               0.86042032409502 155.578130222697 3.21149081959586E-05 166.230643776819 3.73471417966933E-05 173.895278259583 0.172611455374552 -126.183548440614 
                               5.5180577420946E-06 164.56726668418  3.23707353262124E-05 -178.742679457794 0.0894206243943152 -148.497037222129 2.4329047621835E-06 -98.5920327134609 
                               7.82721534770324E-06 -126.26422537371 0.260084589560118 -119.355734782908 4.74299580906588E-05 148.385658401786 0.000112645326977439 -79.8363960781156 
                               5.31670501733923E-05 -89.7326936802741 2.18075420742388E-09 -73.7048733879428 2.53201656402208E-09 -65.7877134481629 1.06690710956862E-05 -11.4916518959306 
                               4.45983393939664E-10 -78.0103573472433 2.11718214610147E-09 -66.0471086177471 5.52425522264287E-06 -33.7911411654696 1.47723594270701E-10 31.0183446862666 
                               3.17591680364377E-10 -5.52497218267968 4.72953504647615E-05 148.768539480842 0.00149333229220676 -179.871027653756 9.78056208868603E-05 0.201359405367333 
                               8.84964031817773E-05 131.855260082335 3.69274225834333E-09 143.783409958193 4.27894998980066E-09 152.260972341201 1.77574128600775E-05 -149.892087512105 
                               7.29469766953497E-10 138.738626367699 3.45712296511946E-09 154.36292853565  9.19818152558107E-06 -172.183639265106 2.68984626528804E-10 -110.27852059597 
                               6.29407126997085E-10 -136.830261930837 0.00011176625792896 -80.1175471776025 9.78086380284313E-05 0.2018535424272  0.00213301976632325 -179.975518130723 
! Gamma         2.05187350490647 3496.1018999198  5239.4163735143  4.19442905058443 5240.92163360616 2.77316177783846 2.05189557530335 3496.10849439083 5239.44503901936 4.19504563371985 5240.85584850895 2.77351336972948 2.05189949228819 3496.10560495158 5239.3741692385  4.19527316696225 5240.88261288449 2.77323717013932 2.05184951452073 3496.10692688221 5239.26207019693 4.19450024254976 5240.70620816231 2.77230605163427 
! Port Impedance         335.106054871966 0.232254078145891 41.3273189594671 788.603050940316 2.92345710136621 216.721159651728 335.149258737007 0.232501605269586 39.3164114966053 820.95312734945  2.71056261142137 219.053029078633 335.173663570052 0.232506498838009 -7.55437148857502 859.230742378874 -0.361474507736791 221.603755128217 335.158481413077 0.232357007450254 -1.490505982489  882.038310993498 0.0241061663471085 223.133969995682 
241.333333333333               0.328960769893616 -174.424989436786 4.4500834920961E-05 -116.791173882341 5.40858846765256E-05 -118.490924413583 0.152787738670182 -32.1589237989055 
                               4.90335375151859E-06 -100.623352918754 2.88590953137697E-05 -84.5485542488944 0.228138307913266 1.33949860215055 6.25430122724474E-06 51.6044236789318 
                               1.99652425387373E-05 23.4782135096957 0.802570241984068 105.006056169259 4.91941050032122E-05 -139.42060189039 8.29037332812083E-05 82.4569287440204 
                               4.42662429314285E-05 -116.770960095825 0.00112847883550493 -179.804007731305 7.74835116590075E-05 3.92915639207674 5.66685732789178E-06 -21.1080925234919 
                               1.59784514060696E-10 -95.011141357561 1.03847084962373E-09 -72.6042284338132 8.46263118986792E-06 12.4054574360238 2.52056464847046E-10 56.8985019585263 
                               8.8525096087216E-10 34.1239556251315 2.97758830516757E-05 116.084757492337 2.15013837818629E-09 -123.417436792208 3.72058742914813E-09 92.9119063576409 
                               5.45113065000939E-05 -118.53381047174 7.74888674324476E-05 3.92874956904945 0.00149031858514638 179.962350967629 6.71394664812858E-06 -13.4629264931837 
                               1.82687700187764E-10 -87.3520217090244 1.21068559954197E-09 -65.0259099664232 1.00239344586413E-05 20.0536921319879 2.89385304626562E-10 64.4759852051932 
                               1.02807928623824E-09 42.2698244806296 3.52613697059468E-05 123.735907032223 2.49695198550514E-09 -115.144824309965 4.33356673336612E-09 101.591329443892 
                               0.152787010873228 -32.1586588561339 5.72472957758091E-06 -21.1899817639283 6.67719752169327E-06 -13.615224750246 0.323025487779138 -175.458524351589 
                               2.78822318475733E-05 2.77821696979042 0.000129916869560382 -33.5306354313703 0.804176385261979 -74.8179163768917 2.20789314424505E-05 -24.4526381388899 
                               7.0367972280117E-05 -52.5915300580997 0.231613441701022 176.144509134118 1.42471055002118E-05 -68.6571812046761 2.3922202886391E-05 153.188778475994 
                               4.87023435089921E-06 -100.327325267335 1.66707072402082E-10 -95.2826293739206 1.89486433470272E-10 -87.2254583954614 2.7802665400012E-05 2.37734063734236 
                               0.00136145821931494 -179.807237128353 7.57698352194538E-05 -176.391941745615 2.56478469003181E-05 -142.914304699679 6.82152517370731E-10 -103.59431457358 
                               2.84730974338971E-09 -126.570531144048 7.38212319489991E-06 108.015860589241 5.99424021386204E-10 -133.053163424078 1.01298737990966E-09 81.7596890131676 
                               2.8853749746474E-05 -84.4135185055439 1.04401420407714E-09 -72.8871839010387 1.21829508712307E-09 -65.2429545444903 0.000129460681942933 -33.5505306351307 
                               7.57656853400721E-05 -176.392200478523 0.00172632483274727 179.984604283288 0.000151902194257575 -127.07365591754 3.98279142157605E-09 -78.8544293991319 
                               1.39065547529531E-08 -108.893373984987 4.37457776823378E-05 123.893396494321 2.88277414364909E-09 -122.977765452196 4.71735366739514E-09 97.0608435466182 
                               0.22813918452658 1.33987827369146 8.55648808982678E-06 12.2670293276311 9.98664053053359E-06 19.8522256539733 0.804181492054998 -74.8178891705516 
                               2.58774446436976E-05 -143.717981827594 0.000151898213570549 -127.222443812279 0.330283633309567 -172.762781539926 3.6401031682621E-05 -136.542344930137 
                               0.0001117208017426 -120.734397425328 0.146933730830662 152.365936613549 9.07932314762584E-06 -92.1893049238423 1.5266142194986E-05 129.495433555971 
                               6.29893700569834E-06 50.8779842487608 2.53026213467951E-10 57.7620759493328 2.88600949178429E-10 65.0106714683494 2.21947441231049E-05 -25.2746636131067 
                               6.74499916813798E-10 -104.91418407758 3.95875460802121E-09 -78.9829583425868 3.67217301066583E-05 -136.329979424768 0.00136414069440165 -179.865385567247 
                               2.81613084046904E-05 1.67776073988791 4.05778051635245E-06 -158.086174403719 2.46838966323036E-10 -29.8016617647093 4.63001234734282E-10 -169.329210846601 
                               2.01118598793363E-05 23.1484326535219 8.4653994585312E-10 34.7252068672763 9.81902754589966E-10 42.5213996080678 7.08689313520934E-05 -53.0182683921049 
                               2.76437741862665E-09 -125.215385212847 1.38165235727112E-08 -108.399916922759 0.000112273649370415 -121.246157116123 2.81467115869792E-05 1.67727395088755 
                               0.00162770273905392 -179.950514290609 1.29543673860557E-05 174.188517474233 6.01654587925965E-10 -68.7626835778453 1.09691447143053E-09 162.065830408425 
                               0.802569534745822 105.006036406278 3.01216741796125E-05 115.915781826723 3.5174682758871E-05 123.506441674466 0.231613774360887 176.144156745679 
                               7.45123500660459E-06 107.665789310616 4.37560994493788E-05 123.780437253994 0.146932352825153 152.365642685166 4.02513023287E-06 -157.607387056589 
                               1.29053407217274E-05 174.327403453406 0.330199888041169 -174.2387941401  4.68839923067867E-05 168.986481003482 8.56940187896832E-05 -84.8093104220808 
                               5.00028178941536E-05 -140.162107831484 2.05909200777934E-09 -123.440515726145 2.40284022526663E-09 -115.581380999603 1.44373756007341E-05 -69.003092107904 
                               5.95511857242323E-10 -132.81145636239 2.87549066441194E-09 -122.854933539357 9.15485018527013E-06 -92.7528635164291 2.41810321159967E-10 -31.2873324732389 
                               5.80325842481363E-10 -68.3588975468824 4.71496663694249E-05 169.623714416791 0.00148706694570201 -179.870784602066 9.84526456774735E-05 0.200309769298897 
                               8.29050237711134E-05 81.7376667409876 3.48200468265461E-09 94.2743670280001 4.056672764087E-09 102.673177129732 2.39324334078026E-05 152.894311076648 
                               9.85182503881299E-10 84.2154344599008 4.69550183714947E-09 97.8025652658922 1.51813802011801E-05 129.138581676572 4.34635693285508E-10 -171.058502587348 
                               1.08477174417421E-09 159.822808160496 8.486388586654E-05 -84.9658271659883 9.84554488648541E-05 0.200846659605452 0.00212958436412027 -179.975741455691 
! Gamma         2.04474754919246 3516.23502227471 5225.93253289554 4.20195103377291 5227.43720185534 2.78148698891321 2.04476957870904 3516.24157903886 5225.96127377346 4.20256869375907 5227.37124680336 2.78183896976381 2.04477343742871 3516.23870612338 5225.8902218545  4.20279906426509 5227.3980785758  2.78156088225553 2.04472356451803 3516.24002029149 5225.77783403357 4.20202418402357 5227.22121989181 2.78062674961993 
! Port Impedance         334.109763776699 0.230258792934005 41.6610335605492 792.686374209527 2.94739989804224 217.872321327156 334.152835065808 0.230504612653841 39.6426606496427 825.208098083094 2.73335142609467 220.216834997373 334.177165196074 0.230509537135485 -7.61660766524624 863.858048624    -0.364447868416006 222.791942549131 334.162039258293 0.230361273649788 -1.50207926104402 886.766042855669 0.0243412829107033 224.329021257889 
242                            0.0727851419134475 106.759033073419 3.53602620773821E-05 -105.542446476735 4.20383355939491E-05 -110.124003975283 0.215638779808903 176.776059368728 
                               6.99776149033269E-06 105.345539480024 4.09318628169833E-05 123.989085711339 0.0749114599148045 -156.330820168256 2.33597885218337E-06 -106.649951411407 
                               7.22767053989226E-06 -127.709552983053 0.842325359956055 77.046950699589  5.13914171015958E-05 -167.619053336969 8.61121269698078E-05 55.0255097775702 
                               3.51225187579902E-05 -106.060921563419 0.00112492140700154 -179.803365663522 7.74261252583183E-05 3.95366572668952 8.04721504516047E-06 -171.940381320939 
                               1.63649598355858E-10 97.8344730729841 1.3711122843643E-09 134.341625223266 2.80570846156262E-06 -145.114694782337 1.19298755992613E-10 -129.730957779606 
                               5.03661709886171E-10 -126.466374044195 3.13644053984144E-05 88.3319037820256 2.1698306387513E-09 -147.606939027823 3.86171827184443E-09 69.8676646292733 
                               4.24047762747052E-05 -110.664810283663 7.74318832686872E-05 3.95324223334296 0.0014878051387798 179.962102107394 9.56092478084525E-06 -164.356545790467 
                               1.92946219930368E-10 105.531876859859 1.61365398152195E-09 141.712937928782 3.32236931373073E-06 -137.487109514462 1.4081232005704E-10 -121.005536524885 
                               5.81297434399457E-10 -117.57592678919 3.73345834302471E-05 95.9278075090152 2.51903446954583E-09 -139.755765892253 4.49262578746512E-09 78.2921223463716 
                               0.215631413197085 176.776039338775 8.30352354434984E-06 -173.407516357299 9.73143673954291E-06 -165.854659925047 0.0603699029908559 117.398960356019 
                               3.40371235141653E-05 -11.7964429562466 0.000188337725394118 -35.0065467763461 0.843337129063164 -103.405729743076 2.33294093741242E-05 -52.4128636399873 
                               7.33931387778434E-05 -81.0880626531857 0.0803421840121973 19.4919998288171 5.10042887073038E-06 143.310780101151 9.17454404414008E-06 3.51672314411499 
                               6.8985882275577E-06 109.151789418815 1.85098804505965E-10 100.57995005535  2.12968137380977E-10 108.627816163757 3.43096938870355E-05 -11.5575207522272 
                               0.00135628472617122 -179.806969362398 7.55631170959107E-05 -176.357716176283 2.69335046122884E-05 -171.014864883766 7.81246271952496E-10 -128.40625334117 
                               3.00018802309451E-09 -150.724283001399 2.57635298522058E-06 -48.2389661501181 3.6713307427643E-10 63.8778993326888 5.981891928673E-10 -93.0084787213543 
                               4.09947408500713E-05 124.718284418265 1.40206948266485E-09 134.277555944798 1.64530982441648E-09 141.778058036852 0.000188037739135576 -34.8887300038321 
                               7.55588703842547E-05 -176.357983053984 0.0017224116719774 179.98476941893  0.000160296395782108 -155.452045697385 4.36906542114868E-09 -106.496640988696 
                               1.4718406318731E-08 -135.791879567886 1.52779137107413E-05 -32.5918183294703 1.27797802326932E-09 80.359107936002  2.04433499615077E-09 -66.0547855469073 
                               0.0749098503489168 -156.331735098733 2.90823979449561E-06 -149.931411017362 3.41084218670621E-06 -142.306729613856 0.843340766441871 -103.40584942543 
                               2.75105317791748E-05 -171.512835161704 0.000160720932095794 -155.59442802251 0.101619522752489 106.889429647176 2.93482079179024E-05 -146.3807406687  
                               8.38333647504613E-05 -117.195601726772 0.213031394161564 3.09640566800538 1.30008203841095E-05 121.939026960877 2.2525673376385E-05 -15.9223417357198 
                               2.09346511099685E-06 -106.487329341968 1.15082173306689E-10 -125.631845322981 1.35819484376582E-10 -118.254788450832 2.36086524814454E-05 -53.746386361459 
                               7.76021607613388E-10 -129.454523393704 4.35073891108625E-09 -106.583846233006 2.96998171088044E-05 -145.575135425782 0.00135879524459927 -179.865307323404 
                               2.79096117186313E-05 1.70516384556567 5.95820148442002E-06 52.8181424281047 3.75315390542317E-10 -154.124209730776 8.26612553215148E-10 59.8091280459866 
                               6.64614684599458E-06 -134.313027601831 4.39147711535019E-10 -123.466349411943 5.10850696886049E-10 -115.417180009871 7.49102662733232E-05 -81.4911933116757 
                               2.91329855980364E-09 -149.631458860722 1.46287431999502E-08 -135.475923035014 8.48009229660818E-05 -117.293884419228 2.78950225386411E-05 1.70485900230834 
                               0.00162397274082812 -179.950498762699 1.89111870397984E-05 25.0419758993598 4.53989712734474E-10 144.943302244693 1.19355215159745E-09 40.1772469586596 
                               0.842328808539801 77.0471517351475 3.19362535799739E-05 88.4961639256727 3.74180412190788E-05 96.021182499207  0.0803439800620725 19.4882576748104 
                               2.48510127357478E-06 -55.8736454082136 1.5050030636555E-05 -33.77347145573  0.213029173691632 3.09576196294737 6.15055116560131E-06 53.974292770378  
                               1.90838860340341E-05 28.0052691351222 0.0839446559576562 105.087368371636 6.54250663876665E-05 159.597998096784 9.5911551735632E-05 -64.3269841299846 
                               5.29593519580156E-05 -167.897375055384 2.08513512347439E-09 -148.380549826753 2.43510128955062E-09 -140.794239529178 5.02788867187931E-06 134.521797691563 